<?xml version="1.0"?>
<VTKFile type="UnstructuredGrid"  version="0.1"  >
<UnstructuredGrid>
<Piece  NumberOfPoints="4225" NumberOfCells="8192">
<Points>
<DataArray  type="Float64"  NumberOfComponents="3"  format="ascii">0 0 0  0.015625 0 0  0.03125 0 0  0.046875 0 0  0.0625 0 0  0.078125 0 0  0.09375 0 0  0.109375 0 0  0.125 0 0  0.140625 0 0  0.15625 0 0  0.171875 0 0  0.1875 0 0  0.203125 0 0  0.21875 0 0  0.234375 0 0  0.25 0 0  0.265625 0 0  0.28125 0 0  0.296875 0 0  0.3125 0 0  0.328125 0 0  0.34375 0 0  0.359375 0 0  0.375 0 0  0.390625 0 0  0.40625 0 0  0.421875 0 0  0.4375 0 0  0.453125 0 0  0.46875 0 0  0.484375 0 0  0.5 0 0  0.515625 0 0  0.53125 0 0  0.546875 0 0  0.5625 0 0  0.578125 0 0  0.59375 0 0  0.609375 0 0  0.625 0 0  0.640625 0 0  0.65625 0 0  0.671875 0 0  0.6875 0 0  0.703125 0 0  0.71875 0 0  0.734375 0 0  0.75 0 0  0.765625 0 0  0.78125 0 0  0.796875 0 0  0.8125 0 0  0.828125 0 0  0.84375 0 0  0.859375 0 0  0.875 0 0  0.890625 0 0  0.90625 0 0  0.921875 0 0  0.9375 0 0  0.953125 0 0  0.96875 0 0  0.984375 0 0  1 0 0  0 0.015625 0  0.015625 0.015625 0  0.03125 0.015625 0  0.046875 0.015625 0  0.0625 0.015625 0  0.078125 0.015625 0  0.09375 0.015625 0  0.109375 0.015625 0  0.125 0.015625 0  0.140625 0.015625 0  0.15625 0.015625 0  0.171875 0.015625 0  0.1875 0.015625 0  0.203125 0.015625 0  0.21875 0.015625 0  0.234375 0.015625 0  0.25 0.015625 0  0.265625 0.015625 0  0.28125 0.015625 0  0.296875 0.015625 0  0.3125 0.015625 0  0.328125 0.015625 0  0.34375 0.015625 0  0.359375 0.015625 0  0.375 0.015625 0  0.390625 0.015625 0  0.40625 0.015625 0  0.421875 0.015625 0  0.4375 0.015625 0  0.453125 0.015625 0  0.46875 0.015625 0  0.484375 0.015625 0  0.5 0.015625 0  0.515625 0.015625 0  0.53125 0.015625 0  0.546875 0.015625 0  0.5625 0.015625 0  0.578125 0.015625 0  0.59375 0.015625 0  0.609375 0.015625 0  0.625 0.015625 0  0.640625 0.015625 0  0.65625 0.015625 0  0.671875 0.015625 0  0.6875 0.015625 0  0.703125 0.015625 0  0.71875 0.015625 0  0.734375 0.015625 0  0.75 0.015625 0  0.765625 0.015625 0  0.78125 0.015625 0  0.796875 0.015625 0  0.8125 0.015625 0  0.828125 0.015625 0  0.84375 0.015625 0  0.859375 0.015625 0  0.875 0.015625 0  0.890625 0.015625 0  0.90625 0.015625 0  0.921875 0.015625 0  0.9375 0.015625 0  0.953125 0.015625 0  0.96875 0.015625 0  0.984375 0.015625 0  1 0.015625 0  0 0.03125 0  0.015625 0.03125 0  0.03125 0.03125 0  0.046875 0.03125 0  0.0625 0.03125 0  0.078125 0.03125 0  0.09375 0.03125 0  0.109375 0.03125 0  0.125 0.03125 0  0.140625 0.03125 0  0.15625 0.03125 0  0.171875 0.03125 0  0.1875 0.03125 0  0.203125 0.03125 0  0.21875 0.03125 0  0.234375 0.03125 0  0.25 0.03125 0  0.265625 0.03125 0  0.28125 0.03125 0  0.296875 0.03125 0  0.3125 0.03125 0  0.328125 0.03125 0  0.34375 0.03125 0  0.359375 0.03125 0  0.375 0.03125 0  0.390625 0.03125 0  0.40625 0.03125 0  0.421875 0.03125 0  0.4375 0.03125 0  0.453125 0.03125 0  0.46875 0.03125 0  0.484375 0.03125 0  0.5 0.03125 0  0.515625 0.03125 0  0.53125 0.03125 0  0.546875 0.03125 0  0.5625 0.03125 0  0.578125 0.03125 0  0.59375 0.03125 0  0.609375 0.03125 0  0.625 0.03125 0  0.640625 0.03125 0  0.65625 0.03125 0  0.671875 0.03125 0  0.6875 0.03125 0  0.703125 0.03125 0  0.71875 0.03125 0  0.734375 0.03125 0  0.75 0.03125 0  0.765625 0.03125 0  0.78125 0.03125 0  0.796875 0.03125 0  0.8125 0.03125 0  0.828125 0.03125 0  0.84375 0.03125 0  0.859375 0.03125 0  0.875 0.03125 0  0.890625 0.03125 0  0.90625 0.03125 0  0.921875 0.03125 0  0.9375 0.03125 0  0.953125 0.03125 0  0.96875 0.03125 0  0.984375 0.03125 0  1 0.03125 0  0 0.046875 0  0.015625 0.046875 0  0.03125 0.046875 0  0.046875 0.046875 0  0.0625 0.046875 0  0.078125 0.046875 0  0.09375 0.046875 0  0.109375 0.046875 0  0.125 0.046875 0  0.140625 0.046875 0  0.15625 0.046875 0  0.171875 0.046875 0  0.1875 0.046875 0  0.203125 0.046875 0  0.21875 0.046875 0  0.234375 0.046875 0  0.25 0.046875 0  0.265625 0.046875 0  0.28125 0.046875 0  0.296875 0.046875 0  0.3125 0.046875 0  0.328125 0.046875 0  0.34375 0.046875 0  0.359375 0.046875 0  0.375 0.046875 0  0.390625 0.046875 0  0.40625 0.046875 0  0.421875 0.046875 0  0.4375 0.046875 0  0.453125 0.046875 0  0.46875 0.046875 0  0.484375 0.046875 0  0.5 0.046875 0  0.515625 0.046875 0  0.53125 0.046875 0  0.546875 0.046875 0  0.5625 0.046875 0  0.578125 0.046875 0  0.59375 0.046875 0  0.609375 0.046875 0  0.625 0.046875 0  0.640625 0.046875 0  0.65625 0.046875 0  0.671875 0.046875 0  0.6875 0.046875 0  0.703125 0.046875 0  0.71875 0.046875 0  0.734375 0.046875 0  0.75 0.046875 0  0.765625 0.046875 0  0.78125 0.046875 0  0.796875 0.046875 0  0.8125 0.046875 0  0.828125 0.046875 0  0.84375 0.046875 0  0.859375 0.046875 0  0.875 0.046875 0  0.890625 0.046875 0  0.90625 0.046875 0  0.921875 0.046875 0  0.9375 0.046875 0  0.953125 0.046875 0  0.96875 0.046875 0  0.984375 0.046875 0  1 0.046875 0  0 0.0625 0  0.015625 0.0625 0  0.03125 0.0625 0  0.046875 0.0625 0  0.0625 0.0625 0  0.078125 0.0625 0  0.09375 0.0625 0  0.109375 0.0625 0  0.125 0.0625 0  0.140625 0.0625 0  0.15625 0.0625 0  0.171875 0.0625 0  0.1875 0.0625 0  0.203125 0.0625 0  0.21875 0.0625 0  0.234375 0.0625 0  0.25 0.0625 0  0.265625 0.0625 0  0.28125 0.0625 0  0.296875 0.0625 0  0.3125 0.0625 0  0.328125 0.0625 0  0.34375 0.0625 0  0.359375 0.0625 0  0.375 0.0625 0  0.390625 0.0625 0  0.40625 0.0625 0  0.421875 0.0625 0  0.4375 0.0625 0  0.453125 0.0625 0  0.46875 0.0625 0  0.484375 0.0625 0  0.5 0.0625 0  0.515625 0.0625 0  0.53125 0.0625 0  0.546875 0.0625 0  0.5625 0.0625 0  0.578125 0.0625 0  0.59375 0.0625 0  0.609375 0.0625 0  0.625 0.0625 0  0.640625 0.0625 0  0.65625 0.0625 0  0.671875 0.0625 0  0.6875 0.0625 0  0.703125 0.0625 0  0.71875 0.0625 0  0.734375 0.0625 0  0.75 0.0625 0  0.765625 0.0625 0  0.78125 0.0625 0  0.796875 0.0625 0  0.8125 0.0625 0  0.828125 0.0625 0  0.84375 0.0625 0  0.859375 0.0625 0  0.875 0.0625 0  0.890625 0.0625 0  0.90625 0.0625 0  0.921875 0.0625 0  0.9375 0.0625 0  0.953125 0.0625 0  0.96875 0.0625 0  0.984375 0.0625 0  1 0.0625 0  0 0.078125 0  0.015625 0.078125 0  0.03125 0.078125 0  0.046875 0.078125 0  0.0625 0.078125 0  0.078125 0.078125 0  0.09375 0.078125 0  0.109375 0.078125 0  0.125 0.078125 0  0.140625 0.078125 0  0.15625 0.078125 0  0.171875 0.078125 0  0.1875 0.078125 0  0.203125 0.078125 0  0.21875 0.078125 0  0.234375 0.078125 0  0.25 0.078125 0  0.265625 0.078125 0  0.28125 0.078125 0  0.296875 0.078125 0  0.3125 0.078125 0  0.328125 0.078125 0  0.34375 0.078125 0  0.359375 0.078125 0  0.375 0.078125 0  0.390625 0.078125 0  0.40625 0.078125 0  0.421875 0.078125 0  0.4375 0.078125 0  0.453125 0.078125 0  0.46875 0.078125 0  0.484375 0.078125 0  0.5 0.078125 0  0.515625 0.078125 0  0.53125 0.078125 0  0.546875 0.078125 0  0.5625 0.078125 0  0.578125 0.078125 0  0.59375 0.078125 0  0.609375 0.078125 0  0.625 0.078125 0  0.640625 0.078125 0  0.65625 0.078125 0  0.671875 0.078125 0  0.6875 0.078125 0  0.703125 0.078125 0  0.71875 0.078125 0  0.734375 0.078125 0  0.75 0.078125 0  0.765625 0.078125 0  0.78125 0.078125 0  0.796875 0.078125 0  0.8125 0.078125 0  0.828125 0.078125 0  0.84375 0.078125 0  0.859375 0.078125 0  0.875 0.078125 0  0.890625 0.078125 0  0.90625 0.078125 0  0.921875 0.078125 0  0.9375 0.078125 0  0.953125 0.078125 0  0.96875 0.078125 0  0.984375 0.078125 0  1 0.078125 0  0 0.09375 0  0.015625 0.09375 0  0.03125 0.09375 0  0.046875 0.09375 0  0.0625 0.09375 0  0.078125 0.09375 0  0.09375 0.09375 0  0.109375 0.09375 0  0.125 0.09375 0  0.140625 0.09375 0  0.15625 0.09375 0  0.171875 0.09375 0  0.1875 0.09375 0  0.203125 0.09375 0  0.21875 0.09375 0  0.234375 0.09375 0  0.25 0.09375 0  0.265625 0.09375 0  0.28125 0.09375 0  0.296875 0.09375 0  0.3125 0.09375 0  0.328125 0.09375 0  0.34375 0.09375 0  0.359375 0.09375 0  0.375 0.09375 0  0.390625 0.09375 0  0.40625 0.09375 0  0.421875 0.09375 0  0.4375 0.09375 0  0.453125 0.09375 0  0.46875 0.09375 0  0.484375 0.09375 0  0.5 0.09375 0  0.515625 0.09375 0  0.53125 0.09375 0  0.546875 0.09375 0  0.5625 0.09375 0  0.578125 0.09375 0  0.59375 0.09375 0  0.609375 0.09375 0  0.625 0.09375 0  0.640625 0.09375 0  0.65625 0.09375 0  0.671875 0.09375 0  0.6875 0.09375 0  0.703125 0.09375 0  0.71875 0.09375 0  0.734375 0.09375 0  0.75 0.09375 0  0.765625 0.09375 0  0.78125 0.09375 0  0.796875 0.09375 0  0.8125 0.09375 0  0.828125 0.09375 0  0.84375 0.09375 0  0.859375 0.09375 0  0.875 0.09375 0  0.890625 0.09375 0  0.90625 0.09375 0  0.921875 0.09375 0  0.9375 0.09375 0  0.953125 0.09375 0  0.96875 0.09375 0  0.984375 0.09375 0  1 0.09375 0  0 0.109375 0  0.015625 0.109375 0  0.03125 0.109375 0  0.046875 0.109375 0  0.0625 0.109375 0  0.078125 0.109375 0  0.09375 0.109375 0  0.109375 0.109375 0  0.125 0.109375 0  0.140625 0.109375 0  0.15625 0.109375 0  0.171875 0.109375 0  0.1875 0.109375 0  0.203125 0.109375 0  0.21875 0.109375 0  0.234375 0.109375 0  0.25 0.109375 0  0.265625 0.109375 0  0.28125 0.109375 0  0.296875 0.109375 0  0.3125 0.109375 0  0.328125 0.109375 0  0.34375 0.109375 0  0.359375 0.109375 0  0.375 0.109375 0  0.390625 0.109375 0  0.40625 0.109375 0  0.421875 0.109375 0  0.4375 0.109375 0  0.453125 0.109375 0  0.46875 0.109375 0  0.484375 0.109375 0  0.5 0.109375 0  0.515625 0.109375 0  0.53125 0.109375 0  0.546875 0.109375 0  0.5625 0.109375 0  0.578125 0.109375 0  0.59375 0.109375 0  0.609375 0.109375 0  0.625 0.109375 0  0.640625 0.109375 0  0.65625 0.109375 0  0.671875 0.109375 0  0.6875 0.109375 0  0.703125 0.109375 0  0.71875 0.109375 0  0.734375 0.109375 0  0.75 0.109375 0  0.765625 0.109375 0  0.78125 0.109375 0  0.796875 0.109375 0  0.8125 0.109375 0  0.828125 0.109375 0  0.84375 0.109375 0  0.859375 0.109375 0  0.875 0.109375 0  0.890625 0.109375 0  0.90625 0.109375 0  0.921875 0.109375 0  0.9375 0.109375 0  0.953125 0.109375 0  0.96875 0.109375 0  0.984375 0.109375 0  1 0.109375 0  0 0.125 0  0.015625 0.125 0  0.03125 0.125 0  0.046875 0.125 0  0.0625 0.125 0  0.078125 0.125 0  0.09375 0.125 0  0.109375 0.125 0  0.125 0.12
[...]
<PointData  Scalars="f_16"> 
<DataArray  type="Float64"  Name="f_16"  format="ascii">0.0000000000000000e+00  3.7575189810794764e-03  6.9685631126486253e-03  9.8279412189022728e-03  1.2477880094471207e-02  1.5023476955523680e-02  1.7543333467550489e-02  2.0097672853074771e-02  2.2734107150113609e-02  2.5490956986074776e-02  2.8400715405248324e-02  3.1492520566688886e-02  3.4792298565299085e-02  3.8325276744381596e-02  4.2117731366565228e-02  4.6194496770740043e-02  5.0582771523096218e-02  5.5315521928918622e-02  6.0423891555338304e-02  6.5939179794345146e-02  7.1894141315249280e-02  7.8307595983538189e-02  8.5200501688001029e-02  9.2615252688274280e-02  1.0058590887488557e-01  1.0915696347209008e-01  1.1840545871863550e-01  1.2836573508622331e-01  1.3907433995454874e-01  1.5063827683503717e-01  1.6308153870783662e-01  1.7643379203109683e-01  1.9087992175571378e-01  2.0642021241620059e-01  2.2304736379775603e-01  2.4109507980659234e-01  2.6049860282278497e-01  2.8114660083768739e-01  3.0368719286900786e-01  3.2790875710570966e-01  3.5343313805075599e-01  3.8158550067116553e-01  4.1183517946835102e-01  4.4314634307485590e-01  4.7833318849730772e-01  5.1619089962370346e-01  5.5408547235218686e-01  5.9816456676599061e-01  6.4581965433026312e-01  6.9052987672176402e-01  7.4604791582358554e-01  8.0686512690466983e-01  8.5688422406504705e-01  9.2763771647220383e-01  1.0076428066296685e+00  1.0565364379916911e+00  1.1490024896275826e+00  1.2612394480661697e+00  1.2878479099538922e+00  1.4155348292176408e+00  1.5948518463653740e+00  1.5203505326583628e+00  1.7154461499921949e+00  2.0587229230379935e+00  1.0000000000000000e+00  0.0000000000000000e+00  3.5171724502051378e-03  6.4781607481710149e-03  9.0817916233578745e-03  1.1472077614500923e-02  1.3754186980849091e-02  1.6006128922289097e-02  1.8287025286094136e-02  2.0642477036552278e-02  2.3109104369140338e-02  2.5717760282629520e-02  2.8494724995310368e-02  3.1464107207077013e-02  3.4649586134235126e-02  3.8073247079948490e-02  4.1758145410962962e-02  4.5730513741976273e-02  5.0015701966326272e-02  5.4641370849770471e-02  5.9639688727718090e-02  6.5036020769291519e-02  7.0855041735836274e-02  7.7129314271345756e-02  8.3880870044821088e-02  9.1138708783075104e-02  9.8958405623543189e-02  1.0737494431254786e-01  1.1642835577790779e-01  1.2620305800016687e-01  1.3672774913369676e-01  1.4803393679790830e-01  1.6025378522661426e-01  1.7340348058611096e-01  1.8749646505025372e-01  2.0276574693173366e-01  2.1919088339534701e-01  2.3672227192682510e-01  2.5579704773593137e-01  2.7630718721003067e-01  2.9803699372074416e-01  3.2185870820438195e-01  3.4747251368324772e-01  3.7424692303654705e-01  4.0400043037527239e-01  4.3603002830003657e-01  4.6868723961023429e-01  5.0588667748221960e-01  5.4610310934448958e-01  5.8521042791385747e-01  6.3184649747796584e-01  6.8285735532737080e-01  7.2802447983726226e-01  7.8684004713917877e-01  8.5306042615567479e-01  9.0113013370341932e-01  9.7616426473668116e-01  1.0666316504131466e+00  1.1065259873272222e+00  1.2040324354712464e+00  1.3419991716745077e+00  1.3360623205582602e+00  1.4597025130510848e+00  1.7198277931207191e+00  1.4222190128961976e+00  1.0000000000000000e+00  0.0000000000000000e+00  3.0880601000074477e-03  5.6924935937028949e-03  7.9922088604165789e-03  1.0115639511919492e-02  1.2155978928306785e-02  1.4181916959434562e-02  1.6244893829651722e-02  1.8384684065632755e-02  2.0633321136869911e-02  2.3017158566302782e-02  2.5559350622367805e-02  2.8281649104165332e-02  3.1204023555505677e-02  3.4346524495445493e-02  3.7731066828412409e-02  4.1379129068626889e-02  4.5313691611531932e-02  4.9560490715436750e-02  5.4141348675717522e-02  5.9079905094625032e-02  6.4408870562571871e-02  7.0156545117124117e-02  7.6352875174293663e-02  8.3038641215985171e-02  9.0236544943178371e-02  9.7972911817612918e-02  1.0630982040002145e-01  1.1528147940902164e-01  1.2492514878555429e-01  1.3534225746918432e-01  1.4655905461476201e-01  1.5859511304502574e-01  1.7161479831452695e-01  1.8562745821610419e-01  2.0061517863097761e-01  2.1687813894369287e-01  2.3438180744944631e-01  2.5299749473498118e-01  2.7330473742190409e-01  2.9517147291285695e-01  3.1818830680064747e-01  3.4353436538409826e-01  3.7088043857191877e-01  3.9912370818715059e-01  4.3075106365998567e-01  4.6506505599629649e-01  4.9926414569926086e-01  5.3872925538963035e-01  5.8215684989236549e-01  6.2255520706578160e-01  6.7179087470090570e-01  7.2786139254604942e-01  7.7322362459077798e-01  8.3444757004874270e-01  9.1017537560347961e-01  9.5521890451259517e-01  1.0296359915787037e+00  1.1425738679400335e+00  1.1705517748218146e+00  1.2448964077180491e+00  1.4477238370887049e+00  1.3788252632892135e+00  1.0678584584659139e+00  1.0000000000000000e+00  0.0000000000000000e+00  2.7044729491392315e-03  5.0066549898784103e-03  7.0596297143020389e-03  8.9731294092682511e-03  1.0826747304240960e-02  1.2679006794391764e-02  1.4574026137649999e-02  1.6546205128076415e-02  1.8623053443532812e-02  2.0827827964502825e-02  2.3181451211571977e-02  2.5702783758770414e-02  2.8410161008409263e-02  3.1322837919433813e-02  3.4459678280928829e-02  3.7840550286692240e-02  4.1487426612409999e-02  4.5419794117997354e-02  4.9657457645385240e-02  5.4225570144337862e-02  5.9148050272311931e-02  6.4454175347320286e-02  7.0185866648194900e-02  7.6374802728934932e-02  8.3048334920382202e-02  9.0248640692594945e-02  9.7996479290649863e-02  1.0631654781024236e-01  1.1528534834866136e-01  1.2494057391346099e-01  1.3531182890355295e-01  1.4652160042021148e-01  1.5859587058576305e-01  1.7153088208094397e-01  1.8553528584122927e-01  2.0062086711027594e-01  2.1671079947227054e-01  2.3419536074666195e-01  2.5305012889952111e-01  2.7300063858066415e-01  2.9481410132841879e-01  3.1840224509581538e-01  3.4300085161898830e-01  3.7018136072448904e-01  3.9977768547385067e-01  4.2982307406375442e-01  4.6361782444844613e-01  5.0102774146564477e-01  5.3712823904709162e-01  5.7893679389992647e-01  6.2703923518356752e-01  6.6913768910982829e-01  7.2011109798653306e-01  7.8435780379674658e-01  8.3076086067297761e-01  8.8970403414836829e-01  9.8265659078313838e-01  1.0289339712217851e+00  1.0788107903120323e+00  1.2302706686133036e+00  1.2684014659030660e+00  1.0822281186216178e+00  9.6708593861196113e-01  1.0000000000000000e+00  0.0000000000000000e+00  2.3888744260974521e-03  4.4454772612051970e-03  6.2995406181236722e-03  8.0442988593576042e-03  9.7475054224279139e-03  1.1459346846259658e-02  1.3218014201898897e-02  1.5053298249926924e-02  1.6989519259490968e-02  1.9047676943770405e-02  2.1246254883782741e-02  2.3602595738321259e-02  2.6134173365842242e-02  2.8858027079387966e-02  3.1791859624012757e-02  3.4954954435102936e-02  3.8365041415730633e-02  4.2039742908399402e-02  4.6000134661547919e-02  5.0266522948590776e-02  5.4862109592974787e-02  5.9819049248263048e-02  6.5166288425844987e-02  7.0934814913268820e-02  7.7170287609089713e-02  8.3903882833405052e-02  9.1158899831312923e-02  9.8983845855983271e-02  1.0740251114752498e-01  1.1643616028178851e-01  1.2617862277136699e-01  1.3667364297111106e-01  1.4793428370290818e-01  1.6011039560153806e-01  1.7323768522155542e-01  1.8726992294781986e-01  2.0247135887780995e-01  2.1888094662008345e-01  2.3631640284669075e-01  2.5527624638587476e-01  2.7581222119777032e-01  2.9739434606292264e-01  3.2099977224334125e-01  3.4676350964950392e-01  3.7330828305414027e-01  4.0259261121746048e-01  4.3511186890965059e-01  4.6743211091536457e-01  5.0347227990120047e-01  5.4508247630516271e-01  5.8383781806961443e-01  6.2727632837071512e-01  6.8207185432023043e-01  7.2773617762732801e-01  7.7677130600900712e-01  8.5290606425999571e-01  9.0769641159320702e-01  9.4822906511701766e-01  1.0576620058638964e+00  1.1389263342073224e+00  1.0545743653687782e+00  9.4580931700763882e-01  9.5447500725240564e-01  1.0000000000000000e+00  0.0000000000000000e+00  2.1332040586308563e-03  3.9908042499947451e-03  5.6833967290485310e-03  7.2907162419847613e-03  8.8710811691786826e-03  1.0468048034791923e-02  1.2114870343636300e-02  1.3837883075114358e-02  1.5658979470827301e-02  1.7596884002450328e-02  1.9668532479131761e-02  2.1890310702078392e-02  2.4277986501585885e-02  2.6847591539215961e-02  2.9616288013503394e-02  3.2600418888631771e-02  3.5816172933681799e-02  3.9281924580211389e-02  4.3015578791557971e-02  4.7036911072564691e-02  5.1372255738191118e-02  5.6046370352815990e-02  6.1084198787444040e-02  6.6521190006729555e-02  7.2388493469208059e-02  7.8717515990745446e-02  8.5560605070650900e-02  9.2951815778183677e-02  1.0090865579425087e-01  1.0948749594423070e-01  1.1871873756059714e-01  1.2861514493085288e-01  1.3929112488667555e-01  1.5080529644824722e-01  1.6314096123829341e-01  1.7647898515390512e-01  1.9088717902901736e-01  2.0624692649881554e-01  2.2287980379070454e-01  2.4090901846722015e-01  2.5997838357809455e-01  2.8068011788038189e-01  3.0329163246912316e-01  3.2687644626924700e-01  3.5253519491904817e-01  3.8102362321266692e-01  4.1003527599583289e-01  4.4154832899049007e-01  4.7779138300704099e-01  5.1328772084289609e-01  5.5114367339977643e-01  5.9810638209814759e-01  6.4171437502466588e-01  6.8449111992661227e-01  7.4690385309787455e-01  8.0359892208135475e-01  8.4237102453253809e-01  9.2136110923869452e-01  1.0116240141905464e+00  9.9770875067436904e-01  9.2012050195998951e-01  9.0967299568247950e-01  9.5790186731800120e-01  1.0000000000000000e+00  0.0000000000000000e+00  1.9264560179847563e-03  3.6225616136791052e-03  5.1836065844276785e-03  6.6786400191417425e-03  8.1584966642418658e-03  9.6612959047574221e-03  1.1216461630414808e-02  1.2847640830281136e-02  1.4574451794182069e-02  1.6414003396935183e-02  1.8382184567820568e-02  2.0493956662087726e-02  2.2764139204222527e-02  2.5208273089986008e-02  2.7841487224410159e-02  3.0678735056781665e-02  3.3736402559589360e-02  3.7030757905892400e-02  4.0579321269441804e-02  4.4404318819610343e-02  4.8527628957889736e-02  5.2971185648849638e-02  5.7764144860931774e-02  6.2933104566006495e-02  6.8503080821019094e-02  7.4514916533900161e-02  8.1005872819097172e-02  8.8007795305503261e-02  9.5580071572130096e-02  1.0376128847161177e-01  1.1255874071312551e-01  1.2203786227120003e-01  1.3224448223724389e-01  1.4317596780767602e-01  1.5496682274476195e-01  1.6770830857322322e-01  1.8133585475976707e-01  1.9605399949221894e-01  2.1200824764395110e-01  2.2897051814498764e-01  2.4728738554046920e-01  2.6727995300699325e-01  2.8834569813061295e-01  3.1105213167788925e-01  3.3618900084792452e-01  3.6229941043151781e-01  3.9020170134717358e-01  4.2198901308911357e-01  4.5437633856260856e-01  4.8799950593200425e-01  5.2853841347509400e-01  5.6928242167842125e-01  6.0796889145681865e-01  6.5969166424127701e-01  7.1415315228516063e-01  7.5386259499593489e-01  8.1306430731066792e-01  8.9641454682824862e-01  9.2458171656023247e-01  8.8423878866995376e-01  8.6745097656760950e-01  9.0801283384069131e-01  9.6012493807437205e-01  1.0000000000000000e+00  0.0000000000000000e+00  1.7590546992770880e-03  3.3238787466334432e-03  4.7776568447423472e-03  6.1809616168273475e-03  7.5785549530744704e-03  9.0042653936570783e-03  1.0484501575451430e-02  1.2040531320113092e-02  1.3690254279503870e-02  1.5449625957080994e-02  1.7333260702401199e-02  1.9355209566271188e-02  2.1529819664876104e-02  2.3871178765106808e-02  2.6393199731687772e-02  2.9110756979097294e-02  3.2038776970223566e-02  3.5192981859163433e-02  3.8592559280196934e-02  4.2257255876195603e-02  4.6206936420313253e-02  5.0466388774975585e-02  5.5059475844881106e-02  6.0008580735764011e-02  6.5346537097622948e-02  7.1104652693295911e-02  7.7308757540593298e-02  8.4006110544986301e-02  9.1242761161354588e-02  9.9048590910213841e-02  1.0748878216825511e-01  1.1661155101345314e-01  1.2640960323554856e-01  1.3695558854342715e-01  1.4832603041634707e-01  1.6049484162118710e-01  1.7360535841589844e-01  1.8781407587461665e-01  2.0299248821530153e-01  2.1933161454787836e-01  2.3713403352622375e-01  2.5604231654502707e-01  2.7630996628654519e-01  2.9864109097598718e-01  3.2219815860928147e-01  3.4716189123669150e-01  3.7524669985406367e-01  4.0471283910481032e-01  4.3500784394605130e-01  4.7034517657704455e-01  5.0781705517442810e-01  5.4355783938807056e-01  5.8727957829344268e-01  6.3732919515183273e-01  6.7801278226044148e-01  7.2551969523911253e-01  7.9665167372644530e-01  8.4561044830178478e-01  8.3821748038956145e-01  8.2584977628672585e-01  8.5685383642299917e-01  9.1122667899671006e-01  9.6032521545126270e-01  1.0000000000000000e+00  0.0000000000000000e+00  1.6232552635449529e-03  3.0812573992704288e-03  4.4475726741087986e-03  5.7759345590214931e-03  7.1062670033243212e-03  8.4689948293244222e-03  9.8879585458812105e-03  1.1382562559458347e-02  1.2969428597455054e-02  1.4663303180937472e-02  1.6477899400024244e-02  1.8426773912885691e-02  2.0523199995094828e-02  2.2780244008042277e-02  2.5211587209478751e-02  2.7831026031177385e-02  3.0652869386427788e-02  3.3693975485097033e-02  3.6972168647974681e-02  4.0505507425773690e-02  4.4315627709015974e-02  4.8424426245104943e-02  5.2852565472015188e-02  5.7627532891310430e-02  6.2777320288672819e-02  6.8325739644809022e-02  7.4309903043875511e-02  8.0767851761182119e-02  8.7725354251287774e-02  9.5235657986136271e-02  1.0335856093911332e-01  1.1212005481529395e-01  1.2158664504202922e-01  1.3182514425404673e-01  1.4281086290168080e-01  1.5461348354046414e-01  1.6736404781746564e-01  1.8101140950274014e-01  1.9567272917596493e-01  2.1161856697894948e-01  2.2866678358116482e-01  2.4689533109262804e-01  2.6686765218167530e-01  2.8817256014896137e-01  3.1069070196846965e-01  3.3569340839016998e-01  3.6245388066898715e-01  3.9001506945784964e-01  4.2117253361578388e-01  4.5527738171499704e-01  4.8858805198625777e-01  5.2646356943278882e-01  5.7133495481601182e-01  6.1193643339248094e-01  6.5302188748170498e-01  7.1205330802518396e-01  7.6791421541104776e-01  7.8489530607046598e-01  7.8298162845611408e-01  8.0711353437185163e-01  8.5842489892254259e-01  9.1247698013073042e-01  9.5985887397565473e-01  1.0000000000000000e+00  0.0000000000000000e+00  1.5129349255599989e-03  2.8839799299874959e-03  4.1789578214486657e-03  5.4461236562398123e-03  6.7215425393533047e-03  8.0328058426243285e-03  9.4017026644247076e-03  1.0846213053107496e-02  1.2381749154989118e-02  1.4022136873880405e-02  1.5780550834496657e-02  1.7669713803946697e-02  1.9702042902797340e-02  2.1890288440859208e-02  2.4247317986691039e-02  2.6786318914074549e-02  2.9522312986858906e-02  3.2471419166242264e-02  3.5650140737014620e-02  3.9077633336263233e-02  4.2773900774617554e-02  4.6758120981310103e-02  5.1054144208165356e-02  5.5687509987070359e-02  6.0680706397971428e-02  6.6064461939962987e-02  7.1872580748969114e-02  7.8130052681453149e-02  8.4877292169350679e-02  9.2162461810454843e-02  1.0001171120443593e-01  1.0848177857793613e-01  1.1765317074661125e-01  1.2754793892943470e-01  1.3822254822394323e-01  1.4977521969575594e-01  1.6216982563975421e-01  1.7544691538478416e-01  1.8982030689020388e-01  2.0523885684990359e-01  2.2171826633644837e-01  2.3968707942315218e-01  2.5900584327430870e-01  2.7945026824777836e-01  3.0188015561592818e-01  3.2617019673907083e-01  3.5138851923281744e-01  3.7918263435664634e-01  4.1004841201203590e-01  4.4111429980799716e-01  4.7472044974883804e-01  5.1452926211846417e-01  5.5383563316754836e-01  5.9143772573663822e-01  6.4065091931743412e-01  6.9559097993817054e-01  7.2791341841238100e-01  7.3807816681860516e-01  7.5931972966441530e-01  8.0524590800934215e-01  8.6034630427691638e-01  9.1221763989530757e-01  9.5941175322326866e-01  1.0000000000000000e+00  0.0000000000000000e+00  1.4232400807568883e-03  2.7234616165428540e-03  3.9602625184201401e-03  5.1775084412562251e-03  6.4080932984036110e-03  7.6773234774007377e-03  9.0053893048626307e-03  1.0409006662806834e-02  1.1902624059950276e-02  1.3499469778570306e-02  1.5212020066235668e-02  1.7052266674087452e-02  1.9032273105794605e-02  2.1164161881726009e-02  2.3460225531964717e-02  2.5934044341001338e-02  2.8600271641255070e-02  3.1474044458421745e-02  3.4572482076825110e-02  3.7913832329648775e-02  4.1515958032545756e-02  4.5399917487275697e-02  4.9588872405900986e-02  5.4104121604471020e-02  5.8972281641587632e-02  6.4223889171686269e-02  6.9883458659369999e-02  7.5984090674795612e-02  8.2567664551468856e-02  8.9661344257746550e-02  9.7306422951597679e-02  1.0556559557738449e-01  1.1446853254168035e-01  1.2406858565880885e-01  1.3447432482922980e-01  1.4571119355922321e-01  1.5780392108330421e-01  1.7089270612890484e-01  1.8495965835367906e-01  1.9996896774973802e-01  2.1622565568661226e-01  2.3376912074848138e-01  2.5240232339884622e-01  2.7266443292543069e-01  2.9473307722542802e-01  3.1788335861220973e-01  3.4294408027606116e-01  3.7083401790227799e-01  3.9970812329032146e-01  4.3010841240864550e-01  4.6541774243004785e-01  5.0250443535311073e-01  5.3795338000307169e-01  5.7999118889733159e-01  6.3043542147121001e-01  6.7057040451735417e-01  6.9145103679004938e-01  7.1314891517950341e-01  7.5365376181011223e-01  8.0687308927928958e-01  8.6066152615436731e-01  9.1159250580142737e-01  9.5912636720287792e-01  1.0000000000000000e+00  0.0000000000000000e+00  1.3502782094541247e-03  2.5928165562613759e-03  3.7822082456044665e-03  4.9587376475875664e-03  6.1527307625126549e-03  7.3876883782364672e-03  8.6824370931317257e-03  1.0052663270919924e-02  1.1512144895073200e-02  1.3073473109172560e-02  1.4748480517805524e-02  1.6548789837714142e-02  1.8485961334393775e-02  2.0571591009025520e-02  2.2818140557135977e-02  2.5239021919392927e-02  2.7848170634261059e-02  3.0661030054649357e-02  3.3694262718530613e-02  3.6964498404322289e-02  4.0490560391034700e-02  4.4293437062940741e-02  4.8393244980060111e-02  5.2813492567408402e-02  5.7581605157223097e-02  6.2721526905907099e-02  6.8262015135850895e-02  7.4239996939460512e-02  8.0683307833484194e-02  8.7625731586453370e-02  9.5119697926839594e-02  1.0319784191582008e-01  1.1189730502706546e-01  1.2129882605901504e-01  1.3144538492736685e-01  1.4237491307956152e-01  1.5422514615942301e-01  1.6704894433652565e-01  1.8080952885454055e-01  1.9567620693194387e-01  2.1172352286679652e-01  2.2879128421436526e-01  2.4719733738820912e-01  2.6726089572690737e-01  2.8853116059495465e-01  3.1132743127869134e-01  3.3657380573537748e-01  3.6329745562439369e-01  3.9116290584289759e-01  4.2267872833974213e-01  4.5703296370917351e-01  4.9072727465871918e-01  5.2777824477781998e-01  5.7273034901931896e-01  6.1531139311110883e-01  6.4407626062749579e-01  6.6819093966066567e-01  7.0446481473799150e-01  7.5410728634263158e-01  8.0768978573107120e-01  8.6016616426819092e-01  9.1109815271988870e-01  9.5896662958252588e-01  1.0000000000000000e+00  0.0000000000000000e+00  1.2909437227516289e-03  2.4865394110721011e-03  3.6373144101972776e-03  4.7806496854405876e-03  5.9448238193578196e-03  7.1518346166799997e-03  8.4193892687353944e-03  9.7624181999480027e-03  1.1194072308266512e-02  1.2726351183664242e-02  1.4370708147107865e-02  1.6138343390993203e-02  1.8040346074273073e-02  2.0088328247614529e-02  2.2294672458646390e-02  2.4672274519436148e-02  2.7235192907763803e-02  2.9998669723720627e-02  3.2978174773674512e-02  3.6190727793031147e-02  3.9655373634433860e-02  4.3390990464406802e-02  4.7418644832924170e-02  5.1762979868986585e-02  5.6447049016340206e-02  6.1496450217292685e-02  6.6943712567453628e-02  7.2816798187845103e-02  7.9145602504925736e-02  8.5974630550200021e-02  9.3338197197086012e-02  1.0126784345458967e-01  1.0982727508098829e-01  1.1906257489202575e-01  1.2900009005668589e-01  1.3973579147568319e-01  1.5134723337482439e-01  1.6384515382963161e-01  1.7737497150116638e-01  1.9206491298836956e-01  2.0780427273835686e-01  2.2471185425034104e-01  2.4306910720003061e-01  2.6264066566765915e-01  2.8349316019446119e-01  3.0640355762367211e-01  3.3103632408901457e-01  3.5677337665624403e-01  3.8517569331147639e