<?xml version="1.0"?>
<VTKFile type="UnstructuredGrid"  version="0.1"  >
<UnstructuredGrid>
<Piece  NumberOfPoints="1657" NumberOfCells="7161">
<Points>
<DataArray  type="Float64"  NumberOfComponents="3"  format="ascii">0.5 0 0  -0.5 0 0  0 0.5 0  0 -0.5 0  0.5 0 1  -0.5 0 1  0 0.5 1  0 -0.5 1  -0.07821723251988573 -0.4938441702976052 0  -0.1545084971870769 -0.4755282581477057 0  -0.2269952498692269 -0.4455032620944624 0  -0.2938926261455928 -0.4045084971879415 0  -0.353553390592598 -0.3535533905939495 0  -0.4045084971870234 -0.2938926261468564 0  -0.4455032620939436 -0.226995249870245 0  -0.4755282581474761 -0.1545084971877837 0  -0.4938441702975501 -0.07821723252023399 0  -0.4938441702976052 0.07821723251988573 0  -0.4755282581477057 0.1545084971870769 0  -0.4455032620944624 0.2269952498692269 0  -0.4045084971879415 0.2938926261455928 0  -0.3535533905939495 0.353553390592598 0  -0.2938926261468564 0.4045084971870234 0  -0.226995249870245 0.4455032620939436 0  -0.1545084971877837 0.4755282581474761 0  -0.07821723252023399 0.4938441702975501 0  0.07821723251988573 0.4938441702976052 0  0.1545084971870769 0.4755282581477057 0  0.2269952498692269 0.4455032620944624 0  0.2938926261455928 0.4045084971879415 0  0.353553390592598 0.3535533905939495 0  0.4045084971870234 0.2938926261468564 0  0.4455032620939436 0.226995249870245 0  0.4755282581474761 0.1545084971877837 0  0.4938441702975501 0.07821723252023399 0  0.4938441702976052 -0.07821723251988573 0  0.4755282581477057 -0.1545084971870769 0  0.4455032620944624 -0.2269952498692269 0  0.4045084971879415 -0.2938926261455928 0  0.3535533905939495 -0.353553390592598 0  0.2938926261468564 -0.4045084971870234 0  0.226995249870245 -0.4455032620939436 0  0.1545084971877837 -0.4755282581474761 0  0.07821723252023399 -0.4938441702975501 0  -0.07821723251988573 -0.4938441702976052 1  -0.1545084971870769 -0.4755282581477057 1  -0.2269952498692269 -0.4455032620944624 1  -0.2938926261455928 -0.4045084971879415 1  -0.353553390592598 -0.3535533905939495 1  -0.4045084971870234 -0.2938926261468564 1  -0.4455032620939436 -0.226995249870245 1  -0.4755282581474761 -0.1545084971877837 1  -0.4938441702975501 -0.07821723252023399 1  -0.4938441702976052 0.07821723251988573 1  -0.4755282581477057 0.1545084971870769 1  -0.4455032620944624 0.2269952498692269 1  -0.4045084971879415 0.2938926261455928 1  -0.3535533905939495 0.353553390592598 1  -0.2938926261468564 0.4045084971870234 1  -0.226995249870245 0.4455032620939436 1  -0.1545084971877837 0.4755282581474761 1  -0.07821723252023399 0.4938441702975501 1  0.07821723251988573 0.4938441702976052 1  0.1545084971870769 0.4755282581477057 1  0.2269952498692269 0.4455032620944624 1  0.2938926261455928 0.4045084971879415 1  0.353553390592598 0.3535533905939495 1  0.4045084971870234 0.2938926261468564 1  0.4455032620939436 0.226995249870245 1  0.4755282581474761 0.1545084971877837 1  0.4938441702975501 0.07821723252023399 1  0.4938441702976052 -0.07821723251988573 1  0.4755282581477057 -0.1545084971870769 1  0.4455032620944624 -0.2269952498692269 1  0.4045084971879415 -0.2938926261455928 1  0.3535533905939495 -0.353553390592598 1  0.2938926261468564 -0.4045084971870234 1  0.226995249870245 -0.4455032620939436 1  0.1545084971877837 -0.4755282581474761 1  0.07821723252023399 -0.4938441702975501 1  0 -0.5 0.9230769230766027  0 -0.5 0.8461538461535256  0 -0.5 0.7692307692309824  0 -0.5 0.6923076923084392  0 -0.5 0.6153846153858957  0 -0.5 0.5384615384633524  0 -0.5 0.4615384615403821  0 -0.5 0.3846153846169851  0 -0.5 0.307692307693588  0 -0.5 0.230769230770191  0 -0.5 0.1538461538467939  0 -0.5 0.07692307692339706  0.5 0 0.9230769230766027  0.5 0 0.8461538461535256  0.5 0 0.7692307692309824  0.5 0 0.6923076923084392  0.5 0 0.6153846153858957  0.5 0 0.5384615384633524  0.5 0 0.4615384615403821  0.5 0 0.3846153846169851  0.5 0 0.307692307693588  0.5 0 0.230769230770191  0.5 0 0.1538461538467939  0.5 0 0.07692307692339706  0 0.5 0.9230769230766027  0 0.5 0.8461538461535256  0 0.5 0.7692307692309824  0 0.5 0.6923076923084392  0 0.5 0.6153846153858957  0 0.5 0.5384615384633524  0 0.5 0.4615384615403821  0 0.5 0.3846153846169851  0 0.5 0.307692307693588  0 0.5 0.230769230770191  0 0.5 0.1538461538467939  0 0.5 0.07692307692339706  -0.5 0 0.9230769230766027  -0.5 0 0.8461538461535256  -0.5 0 0.7692307692309824  -0.5 0 0.6923076923084392  -0.5 0 0.6153846153858957  -0.5 0 0.5384615384633524  -0.5 0 0.4615384615403821  -0.5 0 0.3846153846169851  -0.5 0 0.307692307693588  -0.5 0 0.230769230770191  -0.5 0 0.1538461538467939  -0.5 0 0.07692307692339706  -0.007594136642501654 -0.004045741957735315 1  0.2671352096201229 -0.02102399694998625 1  0.01764383341409913 0.2536132760584658 1  -0.02666396035831023 -0.2531221455965387 1  -0.2531221455965389 0.02666396035831023 1  -0.2215292578081779 -0.1892038603591107 1  0.1892038603591108 -0.2215292578081779 1  -0.1892038603591107 0.2215292578081779 1  0.2215292578081779 0.1892038603591109 1  0.1385185436720213 -0.09057822738852793 1  0.1444278228516107 0.06230098297709098 1  -0.1036020399044679 -0.1332668134328397 1  -0.1236898625509597 0.09154779714398348 1  0.3276138866914048 -0.1493452764976681 1  -0.1493452764976681 -0.3276138866914048 1  -0.3276138866914049 0.1493452764976682 1  0.1479353928765055 0.322183943053354 1  -0.09663024938828488 0.3427470693423371 1  0.350382753551459 0.09518682362295226 1  -0.3499441325621996 -0.09531085618119063 1  0.09531085618119059 -0.3499441325621996 1  0.3758029057029099 -0.02957633010838067 1  0.02957633010838064 0.3758029057029099 1  -0.02957633010838066 -0.37580290570291 1  -0.37580290570291 0.02957633010838064 1  0.008167023249524813 0.1287506671888682 1  -0.1411725171320288 -0.01707001611904115 1  0.01869295614714423 -0.1422154233579206 1  0.1114116068465904 0.1842585037493884 1  -0.2598550650020522 -0.294657539154362 1  -0.2946575391543621 0.2598550650020524 1  0.2601808590994745 0.2960858335428702 1  0.2946575391543622 -0.2598550650020522 1  0.3322366357565687 0.2103437406355584 1  -0.2107023737883974 0.3346675180840228 1  0.2103437406355586 -0.3322366357565688 1  -0.3322366357565688 -0.2103437406355586 1  -0.0812534232444079 0.2029318716322168 1  0.0963670891699373 -0.2227021471835499 1  -0.22270214718355 -0.09636708916993723 1  0.2190419849291031 -0.119559722020513 1  -0.1087485665851406 -0.2146437707845258 1  -0.203317076811764 0.1224557072025287 1  0.2273152369504595 0.09523047733096632 1  0.1600008575320791 -0.01229387630752224 1  0.4050885445567445 -0.09912204850336188 1  -0.4050885445567446 0.09912204850336188 1  0.09892063655748151 0.4043128383227373 1  -0.0991220485033619 -0.4050885445567445 1  -0.03455328827880966 0.415059611947992 1  0.03436480353493904 -0.4160877638365437 1  -0.4160877638365438 -0.03436480353493905 1  0.4161504239778664 0.03434708459804784 1  0.08365969031159125 0.002330153091588407 1  -0.2229390493464861 -0.3596307773124036 1  0.2233161458114676 0.3613387240591179 1  -0.3596307773124037 0.2229390493464862 1  0.3596307773124037 -0.2229390493464862 1  0.390515935037582 0.1636195434767474 1  -0.3904839655777235 -0.1636285837506716 1  0.1636285837506716 -0.3904839655777235 1  -0.1638876663325903 0.3923623890350764 1  0.04384282532259486 -0.07015857662322166 1  -0.08011765448211583 -0.04742160867833382 1  0.3226797123127975 -0.06724769324647022 1  -0.06791911746174686 -0.321011490405228 1  -0.3210114904052281 0.06791911746174685 1  0.06791597125071956 0.3133322485632025 1  0.01300029933573454 -0.3336582341509043 1  -0.3336582341509045 -0.01300029933573453 1  0.3312625026944596 0.01634298279090017 1  -0.01890231217342257 0.3207204227358019 1  0.1593044755135351 0.2337613396768917 1  -0.1672342929047866 -0.132773056500856 1  0.1327730565008564 -0.1672342929047865 1  -0.04057312736015202 0.07214036689862746 1  -0.1216583376241947 0.2551263578533178 1  -0.1373396390671733 0.1663016697769111 1  -0.03904193612438347 -0.1752447455726509 1  -0.1712751339250678 0.03771861162601834 1  0.1644461726501372 0.141775045830479 1  0.1511790319801663 -0.2932104380950028 1  0.2916869062741757 0.1510279462551886 1  -0.2932104380950028 -0.1511790319801662 1  -0.1893770942190298 -0.2599721157064441 1  -0.2635796411850183 0.1942911785362421 1  0.2605218924745163 -0.1907284886484514 1  0.05220398401757594 0.06955290408511863 1  -0.2805626972065101 0.328998778205796 1  0.3302393900494474 0.2819473926997965 1  -0.3318449512303389 -0.2832306080595193 1  0.2832306080595193 -0.3318449512303389 1  0.04832342905271358 0.1877808363511603 1  -0.065696898690541 0.1410851320361489 1  -0.02462254826085986 -0.09310549957314221 1  0.09208911815902721 0.2491550245754104 1  0.4381772089070252 -0.03451370530671609 1  0.03443218218138764 0.4378039052542489 1  -0.03451016151933785 -0.4381646768787607 1  -0.4381646768787607 0.03451016151933783 1  -0.05325027090288098 0.2628866993452785 1  -0.09689651082758409 0.02496399895247979 1  -0.2319704355840505 0.2759202109613136 1  0.2310272246689467 -0.2710730170749428 1  0.2726687263497516 0.2357350096492068 1  -0.2707894989087602 -0.2307430766710918 1  0.0336413547679618 -0.2027252641275629 1  -0.2018898444819838 -0.03359141884633879 1  -0.4063469422152409 0.1729714595109716 1  -0.1729714595109716 -0.4063469422152409 1  0.1703351844603517 0.4017734051354755 1  0.406346942215241 -0.1729714595109716 1  0.1062645597092786 -0.4273938075414044 1  -0.4273938075414044 -0.1062645597092787 1  0.4274699861971816 0.1062430180279853 1  -0.1055593867415405 0.4239082997540863 1  0.2114787942763156 -0.05534444370504381 1  0.2111840717711281 0.02625652447817698 1  -0.01987966435303436 0.1991166824559048 1  0.09743269749791104 0.1212317405257936 1  0.07902357234820491 -0.1415259639585728 1  -0.1527864160148222 -0.07674833379122445 1  -0.2932561548882097 -0.3421707315115853 1  -0.34197627736778 0.2930487078747591 1  0.2933466339041634 0.3427676239539843 1  0.3421707315115853 -0.2932561548882097 1  0.3839561780338137 0.2360638943783668 1  -0.3840708713079414 -0.23615
[...]
<PointData  Scalars="f_21"> 
<DataArray  type="Float64"  Name="f_21"  format="ascii">1.0000000000000000e+00  1.0000000000000000e+00  1.0000000000000000e+00  1.0000000000000000e+00  0.0000000000000000e+00  0.0000000000000000e+00  0.0000000000000000e+00  0.0000000000000000e+00  1.0000000000000000e+00  1.0000000000000000e+00  1.0000000000000000e+00  1.0000000000000000e+00  1.0000000000000000e+00  1.0000000000000000e+00  1.0000000000000000e+00  1.0000000000000000e+00  1.0000000000000000e+00  1.0000000000000000e+00  1.0000000000000000e+00  1.0000000000000000e+00  1.0000000000000000e+00  1.0000000000000000e+00  1.0000000000000000e+00  1.0000000000000000e+00  1.0000000000000000e+00  1.0000000000000000e+00  1.0000000000000000e+00  1.0000000000000000e+00  1.0000000000000000e+00  1.0000000000000000e+00  1.0000000000000000e+00  1.0000000000000000e+00  1.0000000000000000e+00  1.0000000000000000e+00  1.0000000000000000e+00  1.0000000000000000e+00  1.0000000000000000e+00  1.0000000000000000e+00  1.0000000000000000e+00  1.0000000000000000e+00  1.0000000000000000e+00  1.0000000000000000e+00  1.0000000000000000e+00  1.0000000000000000e+00  0.0000000000000000e+00  0.0000000000000000e+00  0.0000000000000000e+00  0.0000000000000000e+00  0.0000000000000000e+00  0.0000000000000000e+00  0.0000000000000000e+00  0.0000000000000000e+00  0.0000000000000000e+00  0.0000000000000000e+00  0.0000000000000000e+00  0.0000000000000000e+00  0.0000000000000000e+00  0.0000000000000000e+00  0.0000000000000000e+00  0.0000000000000000e+00  0.0000000000000000e+00  0.0000000000000000e+00  0.0000000000000000e+00  0.0000000000000000e+00  0.0000000000000000e+00  0.0000000000000000e+00  0.0000000000000000e+00  0.0000000000000000e+00  0.0000000000000000e+00  0.0000000000000000e+00  0.0000000000000000e+00  0.0000000000000000e+00  0.0000000000000000e+00  0.0000000000000000e+00  0.0000000000000000e+00  0.0000000000000000e+00  0.0000000000000000e+00  0.0000000000000000e+00  0.0000000000000000e+00  0.0000000000000000e+00  8.9988351360126465e-02  1.6529949829362819e-01  2.3713724761428157e-01  3.1592873280743083e-01  3.8722943834827867e-01  4.5868905908980362e-01  5.4068747627550906e-01  6.1404042061219399e-01  6.8690261024953858e-01  7.6488652921058464e-01  8.3382628025825978e-01  9.0283908115789013e-01  9.0771579891275891e-02  1.6240139011481666e-01  2.3752182596679738e-01  3.1424169383983858e-01  3.8876257921302509e-01  4.6702754208050484e-01  5.4002714414558495e-01  6.0728262319043347e-01  6.8627211710167524e-01  7.6405434969401220e-01  8.3117794983225501e-01  9.1033493289182232e-01  9.0124055601900191e-02  1.6676925249502880e-01  2.3431690282556561e-01  3.1490917630852422e-01  3.8778792356199709e-01  4.6713066549958993e-01  5.3622188371806701e-01  6.1211019963348623e-01  6.8561014469503678e-01  7.6398944512024625e-01  8.3330515435062114e-01  9.1238532906617142e-01  9.0755155372972546e-02  1.6229447687388079e-01  2.4115265964848651e-01  3.1350607469152181e-01  3.8827421997525785e-01  4.6059547281833652e-01  5.3686518803170902e-01  6.1541996143786815e-01  6.9013719407953589e-01  7.5868062466106168e-01  8.3540924869943300e-01  9.0841445162738943e-01  0.0000000000000000e+00  0.0000000000000000e+00  0.0000000000000000e+00  0.0000000000000000e+00  0.0000000000000000e+00  0.0000000000000000e+00  0.0000000000000000e+00  0.0000000000000000e+00  0.0000000000000000e+00  0.0000000000000000e+00  0.0000000000000000e+00  0.0000000000000000e+00  0.0000000000000000e+00  0.0000000000000000e+00  0.0000000000000000e+00  0.0000000000000000e+00  0.0000000000000000e+00  0.0000000000000000e+00  0.0000000000000000e+00  0.0000000000000000e+00  0.0000000000000000e+00  0.0000000000000000e+00  0.0000000000000000e+00  0.0000000000000000e+00  0.0000000000000000e+00  0.0000000000000000e+00  0.0000000000000000e+00  0.0000000000000000e+00  0.0000000000000000e+00  0.0000000000000000e+00  0.0000000000000000e+00  0.0000000000000000e+00  0.0000000000000000e+00  0.0000000000000000e+00  0.0000000000000000e+00  0.0000000000000000e+00  0.0000000000000000e+00  0.0000000000000000e+00  0.0000000000000000e+00  0.0000000000000000e+00  0.0000000000000000e+00  0.0000000000000000e+00  0.0000000000000000e+00  0.0000000000000000e+00  0.0000000000000000e+00  0.0000000000000000e+00  0.0000000000000000e+00  0.0000000000000000e+00  0.0000000000000000e+00  0.0000000000000000e+00  0.0000000000000000e+00  0.0000000000000000e+00  0.0000000000000000e+00  0.0000000000000000e+00  0.0000000000000000e+00  0.0000000000000000e+00  0.0000000000000000e+00  0.0000000000000000e+00  0.0000000000000000e+00  0.0000000000000000e+00  0.0000000000000000e+00  0.0000000000000000e+00  0.0000000000000000e+00  0.0000000000000000e+00  0.0000000000000000e+00  0.0000000000000000e+00  0.0000000000000000e+00  0.0000000000000000e+00  0.0000000000000000e+00  0.0000000000000000e+00  0.0000000000000000e+00  0.0000000000000000e+00  0.0000000000000000e+00  0.0000000000000000e+00  0.0000000000000000e+00  0.0000000000000000e+00  0.0000000000000000e+00  0.0000000000000000e+00  0.0000000000000000e+00  0.0000000000000000e+00  0.0000000000000000e+00  0.0000000000000000e+00  0.0000000000000000e+00  0.0000000000000000e+00  0.0000000000000000e+00  0.0000000000000000e+00  0.0000000000000000e+00  0.0000000000000000e+00  0.0000000000000000e+00  0.0000000000000000e+00  0.0000000000000000e+00  0.0000000000000000e+00  0.0000000000000000e+00  0.0000000000000000e+00  0.0000000000000000e+00  0.0000000000000000e+00  0.0000000000000000e+00  0.0000000000000000e+00  0.0000000000000000e+00  0.0000000000000000e+00  0.0000000000000000e+00  0.0000000000000000e+00  0.0000000000000000e+00  0.0000000000000000e+00  0.0000000000000000e+00  0.0000000000000000e+00  0.0000000000000000e+00  0.0000000000000000e+00  0.0000000000000000e+00  0.0000000000000000e+00  0.0000000000000000e+00  0.0000000000000000e+00  0.0000000000000000e+00  0.0000000000000000e+00  0.0000000000000000e+00  0.0000000000000000e+00  0.0000000000000000e+00  0.0000000000000000e+00  0.0000000000000000e+00  0.0000000000000000e+00  0.0000000000000000e+00  0.0000000000000000e+00  0.0000000000000000e+00  0.0000000000000000e+00  0.0000000000000000e+00  0.0000000000000000e+00  0.0000000000000000e+00  0.0000000000000000e+00  0.0000000000000000e+00  0.0000000000000000e+00  0.0000000000000000e+00  0.0000000000000000e+00  0.0000000000000000e+00  0.0000000000000000e+00  0.0000000000000000e+00  0.0000000000000000e+00  0.0000000000000000e+00  0.0000000000000000e+00  0.0000000000000000e+00  0.0000000000000000e+00  1.0000000000000000e+00  1.0000000000000000e+00  1.0000000000000000e+00  1.0000000000000000e+00  1.0000000000000000e+00  1.0000000000000000e+00  1.0000000000000000e+00  1.0000000000000000e+00  1.0000000000000000e+00  1.0000000000000000e+00  1.0000000000000000e+00  1.0000000000000000e+00  1.0000000000000000e+00  1.0000000000000000e+00  1.0000000000000000e+00  1.0000000000000000e+00  1.0000000000000000e+00  1.0000000000000000e+00  1.0000000000000000e+00  1.0000000000000000e+00  1.0000000000000000e+00  1.0000000000000000e+00  1.0000000000000000e+00  1.0000000000000000e+00  1.0000000000000000e+00  1.0000000000000000e+00  1.0000000000000000e+00  1.0000000000000000e+00  1.0000000000000000e+00  1.0000000000000000e+00  1.0000000000000000e+00  1.0000000000000000e+00  1.0000000000000000e+00  1.0000000000000000e+00  1.0000000000000000e+00  1.0000000000000000e+00  1.0000000000000000e+00  1.0000000000000000e+00  1.0000000000000000e+00  1.0000000000000000e+00  1.0000000000000000e+00  1.0000000000000000e+00  1.0000000000000000e+00  1.0000000000000000e+00  1.0000000000000000e+00  1.0000000000000000e+00  1.0000000000000000e+00  1.0000000000000000e+00  1.0000000000000000e+00  1.0000000000000000e+00  1.0000000000000000e+00  1.0000000000000000e+00  1.0000000000000000e+00  1.0000000000000000e+00  1.0000000000000000e+00  1.0000000000000000e+00  1.0000000000000000e+00  1.0000000000000000e+00  1.0000000000000000e+00  1.0000000000000000e+00  1.0000000000000000e+00  1.0000000000000000e+00  1.0000000000000000e+00  1.0000000000000000e+00  1.0000000000000000e+00  1.0000000000000000e+00  1.0000000000000000e+00  1.0000000000000000e+00  1.0000000000000000e+00  1.0000000000000000e+00  1.0000000000000000e+00  1.0000000000000000e+00  1.0000000000000000e+00  1.0000000000000000e+00  1.0000000000000000e+00  1.0000000000000000e+00  1.0000000000000000e+00  1.0000000000000000e+00  1.0000000000000000e+00  1.0000000000000000e+00  1.0000000000000000e+00  1.0000000000000000e+00  1.0000000000000000e+00  1.0000000000000000e+00  1.0000000000000000e+00  1.0000000000000000e+00  1.0000000000000000e+00  1.0000000000000000e+00  1.0000000000000000e+00  1.0000000000000000e+00  1.0000000000000000e+00  1.0000000000000000e+00  1.0000000000000000e+00  1.0000000000000000e+00  1.0000000000000000e+00  1.0000000000000000e+00  1.0000000000000000e+00  1.0000000000000000e+00  1.0000000000000000e+00  1.0000000000000000e+00  1.0000000000000000e+00  1.0000000000000000e+00  1.0000000000000000e+00  1.0000000000000000e+00  1.0000000000000000e+00  1.0000000000000000e+00  1.0000000000000000e+00  1.0000000000000000e+00  1.0000000000000000e+00  1.0000000000000000e+00  1.0000000000000000e+00  1.0000000000000000e+00  1.0000000000000000e+00  1.0000000000000000e+00  1.0000000000000000e+00  1.0000000000000000e+00  1.0000000000000000e+00  1.0000000000000000e+00  1.0000000000000000e+00  1.0000000000000000e+00  1.0000000000000000e+00  1.0000000000000000e+00  1.0000000000000000e+00  1.0000000000000000e+00  1.0000000000000000e+00  1.0000000000000000e+00  1.0000000000000000e+00  1.0000000000000000e+00  1.0000000000000000e+00  1.0000000000000000e+00  1.0000000000000000e+00  1.0000000000000000e+00  1.0000000000000000e+00  1.0000000000000000e+00  1.0000000000000000e+00  1.0000000000000000e+00  1.0000000000000000e+00  1.0000000000000000e+00  1.0000000000000000e+00  1.0000000000000000e+00  1.0000000000000000e+00  8.2405598295999205e-01  1.9156438973706313e-01  8.2098856205573334e-01  1.9343564784584602e-01  1.8580691004294903e-01  8.7340422319630429e-01  8.7279034255132759e-01  2.3878428271502597e-01  7.4234391801783273e-01  7.2521738933794200e-01  3.9127337409767515e-01  3.9211180394656209e-01  6.2333241197895550e-01  6.0960934411358003e-01  2.5436672094703933e-01  8.6947635858926653e-01  8.7747151642402832e-01  1.1990178183570095e-01  8.7779220091015320e-01  1.1700909912985587e-01  6.4755245636220948e-01  7.7364298247123364e-01  8.9446893199585431e-01  8.7929509986045662e-01  9.2775857417327434e-01  9.3423459568140876e-01  9.4236570188993035e-02  9.4862739485231357e-02  5.2011356634624806e-01  1.7463892143152140e-01  1.7932011103413836e-01  8.3099158312183063e-01  8.2945729832027104e-01  6.5607381847267310e-01  6.3771566280826475e-01  3.3931238719914963e-01  3.2135742635690540e-01  5.4751031279251927e-01  4.7853609402346264e-01  4.7363264331016974e-01  4.0063406749057329e-01  4.1354113559002881e-01  6.5463754871810109e-01  6.6743317552753112e-01  6.6513927604073331e-01  7.0953833267240685e-01  3.1434074525287375e-01  3.1325673838287110e-01  3.4310834326387185e-01  3.4050361650518668e-01  6.7054519001022295e-01  6.7115320959785463e-01  3.1119692692134465e-01  3.0068537009729024e-01  5.8058734368542575e-01  7.3930976261571368e-01  6.8829160592566788e-02  9.3102296636029858e-01  7.9996951541179118e-01  7.9692618547242855e-01  1.4322623901971676e-01  1.6809092956275778e-01  7.7284757073430954e-01  7.7127330324037457e-01  8.2956327058863655e-01  8.0806002001268773e-01  9.3504983469035530e-01  9.3013926897087262e-01  5.4507046787726117e-02  5.6775639197513723e-02  3.7294323651660738e-01  7.2741842461328998e-01  7.1363973334929443e-01  8.0003622281394982e-01  8.0046707140003237e-01  8.7825186857187743e-01  8.7730537864111979e-01  7.1429900675237079e-02  7.9144673301644139e-02  9.2627812211385119e-01  9.3841457046895171e-01  4.8505838317696826e-01  4.8121046945388285e-01  5.1238362442428198e-01  5.1899424113198001e-01  4.9222206978524985e-01  4.8765848010146728e-01  4.5185739560396804e-01  4.5964813083033795e-01  4.4164150877191793e-01  4.4529475196342072e-01  5.1175572142424064e-01  5.2414924785747063e-01  7.3912323228023979e-01  7.3810830959013696e-01  6.0300321130983126e-01  6.0060660923838360e-01  4.8694245198070102e-01  4.8004318024462905e-01  4.2817021760178170e-01  4.2806521300881933e-01  2.4504733924711999e-01  2.4611306611183026e-01  5.7856082934191677e-01  5.7880029290005641e-01  5.5457077621438389e-01  5.5669971472345559e-01  3.6977179364145379e-01  3.8263423361784937e-01  5.6857415325475735e-01  2.3953042825077112e-01  9.3959926554947515e-01  9.3052379077713732e-01  5.4478630525726768e-01  5.4803301094077994e-01  7.0280281394167171e-02  3.0845141365398776e-01  3.5045790449383718e-01  2.3668389045325131e-01  1.4474031791854683e-01  6.7707400457732769e-01  9.5751921248426367e-02  1.0685170434467081e-01  4.4379354422991496e-01  1.0074674594399760e-01  6.1342197392264830e-01  6.2801661641344353e-01  6.2999559532221561e-01  2.5808753167362325e-01  9.2835417315398494e-01  6.9977752948730476e-01  1.8851215356984483e-01  3.0748893769601415e-01  2.6958516803229321e-01  8.0036755312815910e-01  2.7122719153458624e-01  4.6762078593574993e-02  5.4705406105630391e-02  1.4571122730290734e-01  8.1841313796510073e-01  1.9043131406916983e-01  8.2074043454815970e-01  1.9568868910106957e-01  1.8313970585463804e-01  8.7217090650410667e-01  8.7270707856601282e-01  2.3816456805967903e-01  7.3933200741929828e-01  7.2416265217900089e-01  3.8963176652668713e-01  3.9055999578987527e-01  6.2494911533893183e-01  6.0960446022069881e-01  2.5626883162835751e-01  8.6548695417598276e-01  8.7857751032704379e-01  1.2329250264170701e-01  8.7976123563376252e-01  1.1927121398788099e-01  6.4964302623326309e-01  7.7411167587587848e-01  8.9146013609812125e-01  8.8429338194892726e-01  9.2951188999476286e-01  9.3521696904887575e-01  8.6540693969929292e-02  9.3902069556619186e-02  5.1943995550636413e-01  1.7084784413375975e-01  1.8290904894013257e-01  8.2291595192576794e-01  8.3048902421796222e-01  6.6237012157018305e-01  6.3675311933028167e-01  3.3854486305066467e-01  3.2195601923923961e-01  5.4832300356298835e-01  4.8175144784159979e-01  4.7528224671822777e-01  4.0256178298297984e-01  4.1052304289103064e-01  6.5328199934696840e-01  6.6679115197285321e-01  6.6345530084510185e-01  7.0922327276989328e-01  3.1741073938232484e-01  3.0894764363435717e-01  3.3907011587005659e-01  3.3848916334679369e-01  6.6968006683671577e-01  6.7109029888981941e-01  3.1580290864520544e-01  3.0148179767687172e-01  5.8386285689127515e-01  7.3522718511201979e-01  7.3287513958858116e-02  9.3195847112748254e-01  8.0067337756333479e-01  7.9979708110670922e-01  1.4027794156384457e-01  1.6691511937790568e-01  7.7258143542029889e-01  7.7093487879723854e-01  8.3255328605004131e-01  8.0510717147457234e-01  9.3969143816278611e-01  9.3060026920828609e-01  5.2889632933324215e-02  6.1879212045248336e-02  3.7507980813105435e-01  7.3039851523337962e-01  7.1596449474253621e-01  8.0607887674224921e-01  8.0075576163253448e-01  8.7683610045773530e-01  8.7270830697345125e-01  8.0001246682905591e-02  7.9517859312560960e-02  9.3044361292422029e-01  9.3751668914810515e-01  4.8854954472918660e-01  4.8934787678578251e-01  5.1729828198965111e-01  5.1615684062414235e-01  4.9830724761866457e-01  4.9352033238795634e-01  4.5301955414641604e-01  4.5847415004390563e-01  4.4575034779466172e-01  4.4676621148651086e-01  5.1479752265219725e-01  5.1794244946105739e-01  7.3886630476573745e-01  7.3959978624195211e-01  6.0162359936244914e-01  5.9701276034755490e-01  4.8559880838662856e-01  4.8067544918182747e-01  4.2516913851751670e-01  4.2956461869084600e-01  2.4499346240480546e-01  2.4305303389305405e-01  5.8531068011910159e-01  5.7945955353149869e-01  5.5635530030053448e-01  5.5353823851748274e-01  3.6941615321472077e-01  3.8155393170001395e-01  5.6988506210628398e-01  2.3544744981790150e-01  9.4063188057297220e-01  9.3247966924481640e-01  5.4598569221501791e-01  5.5030288258057525e-01  6.9339601686806585e-02  3.0698257582586275e-01  3.5532009689751370e-01  2.3589105615149109e-01  1.4292230756160823e-01  6.8104836479469633e-01  9.7892826864363972e-02  1.1135920756390032e-01  4.4476471341040624e-01  9.9233079113314290e-02  6.1441789073968189e-01  6.2236431261614567e-01  6.2493078487456943e-01  2.5662084849918609e-01  9.3261297415453337e-01  7.0055329730472993e-01  1.8907849747367148e-01  3.0360872008559392e-01  2.6524073270723453e-01  8.0175735604852183e-01  2.7456927523668662e-01  4.7594063256911602e-02  5.7515670751202792e-02  1.4642204802403430e-01  8.2096525375075069e-01  1.9035056363710637e-01  8.1845645756420626e-01  1.9504499473332568e-01  1.8581637808210866e-01  8.6413250241607864e-01  8.6705733847213728e-01  2.4070658993429322e-01  7.3815583747758384e-01  7.2867647882964093e-01  3.9659505209469015e-01  3.9144382737077454e-01  6.2680181035446814e-01  6.1002157236860766e-01  2.5903012261617531e-01  8.6481755982475550e-01  8.7780340728815387e-01  1.2155806585848196e-01  8.7929910154022817e-01  1.1495279514260259e-01  6.4994559151633380e-01  7.7054476812618089e-01  8.9334513676965543e-01  8.8390917620314402e-01  9.3201009804485857e-01  9.4015428575476145e-01  8.7445294025973619e-02  9.3117589038349810e-02  5.1824505264542720e-01  1.7398897028064700e-01  1.7932264366336176e-01  8.2959363318008372e-01  8.2869453258359926e-01  6.6214835178648723e-01  6.4031610848708476e-01  3.3968415017527259e-01  3.2283084660597816e-01  5.4423312640202004e-01  4.7734716782132985e-01  4.7382494326671026e-01  4.0462471302491104e-01  4.1565399122637597e-01  6.5422011500090471e-01  6.6730659328584463e-01  6.6621924009158251e-01  7.0437430976017279e-01  3.2007926745894927e-01  3.0795067817006982e-01  3.4308262725417243e-01  3.4061522832136071e-01  6.7297686602714124e-01  6.6976978083778693e-01  3.1207159013148872e-01  2.9780175759132166e-01  5.8280963708010725e-01  7.3669620595869190e-01  7.6379968401000878e-02  9.2985998349291166e-01  7.9841135938993879e-01  7.9983352864774993e-01  1.4141728353421890e-01  1.6909303233879594e-01  7.7250726416755466e-01  7.6906632160634480e-01  8.2850309832630376e-01  8.0775476191454743e-01  9.3970947331403720e-01  9.2094177944937394e-01  4.6788178156759314e-02  5.9175137790210414e-02  3.7374032701789706e-01  7.2643059680846678e-01  7.1456432719896912e-01  8.0270158282701332e-01  8.0028307864104065e-01  8.7504316257385284e-01  8.7497762086548303e-01  7.6027713324521809e-02  7.8808375301430020e-02  9.3315700483604447e-01  9.3511974698128175e-01  4.8481341751606560e-01  4.8424429782379574e-01  5.1154853532814792e-01  5.1751251855856351e-01  4.8926960328776353e-01  4.9361841261860695e-01  4.5563879363819826e-01  4.5657747236487040e-01  4.4852907979586432e-01  4.4605914033482330e-01  5.0449661868015916e-01  5.1815162780874324e-01  7.3835470839083905e-01  7.4077921558009829e-01  6.0234078702847793e-01  5.9858292517305234e-01  4.8271617375915576e-01  4.8228152314859024e-01  4.2279481658236823e-01  4.2907981123465011e-01  2.4227185555560221e-01  2.4850732253102711e-01  5.7972454780862892e-01  5.8020951240521512e-01  5.5797239596543535e-01  5.5260967953536710e-01  3.7256380133554134e-01  3.8072285627166647e-01  5.6884875167044724e-01  2.3786648150414796e-01  9.4566296071582001e-01  9.3813820018308702e-01  5.4069225470035687e-01  5.4343901854398979e-01  7.7968507685273650e-02  3.0939002879227451e-01  3.5602990659268091e-01  2.3634108192328221e-01  1.4139318537776333e-01  6.7885021204358964e-01  9.7603362198195487e-02  1.1103390243371665e-01  4.4447950329359970e-01  1.0311126637104134e-01  6.1365422667435654e-01  6.3066976460382607e-01  6.2284293215170405e-01  2.5754084489150036e-01  9.3480377488082467e-01  6.9890876383719558e-01  1.8526549484966043e-01  3.0863389444174455e-01  2.6477898983766734e-01  8.0394385620550168e-01  2.7173992930944718e-01  4.7475031785707160e-02  5.5459383511475092e-02  1.4620612571283115e-01  8.2051245302455578e-01  1.9093096030523285e-01  8.2043857012826626e-01  1.9604595783724379e