<?xml version="1.0"?>
<VTKFile type="UnstructuredGrid"  version="0.1"  >
<UnstructuredGrid>
<Piece  NumberOfPoints="1657" NumberOfCells="7161">
<Points>
<DataArray  type="Float64"  NumberOfComponents="3"  format="ascii">0.5 0 0  -0.5 0 0  0 0.5 0  0 -0.5 0  0.5 0 1  -0.5 0 1  0 0.5 1  0 -0.5 1  -0.07821723251988573 -0.4938441702976052 0  -0.1545084971870769 -0.4755282581477057 0  -0.2269952498692269 -0.4455032620944624 0  -0.2938926261455928 -0.4045084971879415 0  -0.353553390592598 -0.3535533905939495 0  -0.4045084971870234 -0.2938926261468564 0  -0.4455032620939436 -0.226995249870245 0  -0.4755282581474761 -0.1545084971877837 0  -0.4938441702975501 -0.07821723252023399 0  -0.4938441702976052 0.07821723251988573 0  -0.4755282581477057 0.1545084971870769 0  -0.4455032620944624 0.2269952498692269 0  -0.4045084971879415 0.2938926261455928 0  -0.3535533905939495 0.353553390592598 0  -0.2938926261468564 0.4045084971870234 0  -0.226995249870245 0.4455032620939436 0  -0.1545084971877837 0.4755282581474761 0  -0.07821723252023399 0.4938441702975501 0  0.07821723251988573 0.4938441702976052 0  0.1545084971870769 0.4755282581477057 0  0.2269952498692269 0.4455032620944624 0  0.2938926261455928 0.4045084971879415 0  0.353553390592598 0.3535533905939495 0  0.4045084971870234 0.2938926261468564 0  0.4455032620939436 0.226995249870245 0  0.4755282581474761 0.1545084971877837 0  0.4938441702975501 0.07821723252023399 0  0.4938441702976052 -0.07821723251988573 0  0.4755282581477057 -0.1545084971870769 0  0.4455032620944624 -0.2269952498692269 0  0.4045084971879415 -0.2938926261455928 0  0.3535533905939495 -0.353553390592598 0  0.2938926261468564 -0.4045084971870234 0  0.226995249870245 -0.4455032620939436 0  0.1545084971877837 -0.4755282581474761 0  0.07821723252023399 -0.4938441702975501 0  -0.07821723251988573 -0.4938441702976052 1  -0.1545084971870769 -0.4755282581477057 1  -0.2269952498692269 -0.4455032620944624 1  -0.2938926261455928 -0.4045084971879415 1  -0.353553390592598 -0.3535533905939495 1  -0.4045084971870234 -0.2938926261468564 1  -0.4455032620939436 -0.226995249870245 1  -0.4755282581474761 -0.1545084971877837 1  -0.4938441702975501 -0.07821723252023399 1  -0.4938441702976052 0.07821723251988573 1  -0.4755282581477057 0.1545084971870769 1  -0.4455032620944624 0.2269952498692269 1  -0.4045084971879415 0.2938926261455928 1  -0.3535533905939495 0.353553390592598 1  -0.2938926261468564 0.4045084971870234 1  -0.226995249870245 0.4455032620939436 1  -0.1545084971877837 0.4755282581474761 1  -0.07821723252023399 0.4938441702975501 1  0.07821723251988573 0.4938441702976052 1  0.1545084971870769 0.4755282581477057 1  0.2269952498692269 0.4455032620944624 1  0.2938926261455928 0.4045084971879415 1  0.353553390592598 0.3535533905939495 1  0.4045084971870234 0.2938926261468564 1  0.4455032620939436 0.226995249870245 1  0.4755282581474761 0.1545084971877837 1  0.4938441702975501 0.07821723252023399 1  0.4938441702976052 -0.07821723251988573 1  0.4755282581477057 -0.1545084971870769 1  0.4455032620944624 -0.2269952498692269 1  0.4045084971879415 -0.2938926261455928 1  0.3535533905939495 -0.353553390592598 1  0.2938926261468564 -0.4045084971870234 1  0.226995249870245 -0.4455032620939436 1  0.1545084971877837 -0.4755282581474761 1  0.07821723252023399 -0.4938441702975501 1  0 -0.5 0.9230769230766027  0 -0.5 0.8461538461535256  0 -0.5 0.7692307692309824  0 -0.5 0.6923076923084392  0 -0.5 0.6153846153858957  0 -0.5 0.5384615384633524  0 -0.5 0.4615384615403821  0 -0.5 0.3846153846169851  0 -0.5 0.307692307693588  0 -0.5 0.230769230770191  0 -0.5 0.1538461538467939  0 -0.5 0.07692307692339706  0.5 0 0.9230769230766027  0.5 0 0.8461538461535256  0.5 0 0.7692307692309824  0.5 0 0.6923076923084392  0.5 0 0.6153846153858957  0.5 0 0.5384615384633524  0.5 0 0.4615384615403821  0.5 0 0.3846153846169851  0.5 0 0.307692307693588  0.5 0 0.230769230770191  0.5 0 0.1538461538467939  0.5 0 0.07692307692339706  0 0.5 0.9230769230766027  0 0.5 0.8461538461535256  0 0.5 0.7692307692309824  0 0.5 0.6923076923084392  0 0.5 0.6153846153858957  0 0.5 0.5384615384633524  0 0.5 0.4615384615403821  0 0.5 0.3846153846169851  0 0.5 0.307692307693588  0 0.5 0.230769230770191  0 0.5 0.1538461538467939  0 0.5 0.07692307692339706  -0.5 0 0.9230769230766027  -0.5 0 0.8461538461535256  -0.5 0 0.7692307692309824  -0.5 0 0.6923076923084392  -0.5 0 0.6153846153858957  -0.5 0 0.5384615384633524  -0.5 0 0.4615384615403821  -0.5 0 0.3846153846169851  -0.5 0 0.307692307693588  -0.5 0 0.230769230770191  -0.5 0 0.1538461538467939  -0.5 0 0.07692307692339706  -0.007594136642501654 -0.004045741957735315 1  0.2671352096201229 -0.02102399694998625 1  0.01764383341409913 0.2536132760584658 1  -0.02666396035831023 -0.2531221455965387 1  -0.2531221455965389 0.02666396035831023 1  -0.2215292578081779 -0.1892038603591107 1  0.1892038603591108 -0.2215292578081779 1  -0.1892038603591107 0.2215292578081779 1  0.2215292578081779 0.1892038603591109 1  0.1385185436720213 -0.09057822738852793 1  0.1444278228516107 0.06230098297709098 1  -0.1036020399044679 -0.1332668134328397 1  -0.1236898625509597 0.09154779714398348 1  0.3276138866914048 -0.1493452764976681 1  -0.1493452764976681 -0.3276138866914048 1  -0.3276138866914049 0.1493452764976682 1  0.1479353928765055 0.322183943053354 1  -0.09663024938828488 0.3427470693423371 1  0.350382753551459 0.09518682362295226 1  -0.3499441325621996 -0.09531085618119063 1  0.09531085618119059 -0.3499441325621996 1  0.3758029057029099 -0.02957633010838067 1  0.02957633010838064 0.3758029057029099 1  -0.02957633010838066 -0.37580290570291 1  -0.37580290570291 0.02957633010838064 1  0.008167023249524813 0.1287506671888682 1  -0.1411725171320288 -0.01707001611904115 1  0.01869295614714423 -0.1422154233579206 1  0.1114116068465904 0.1842585037493884 1  -0.2598550650020522 -0.294657539154362 1  -0.2946575391543621 0.2598550650020524 1  0.2601808590994745 0.2960858335428702 1  0.2946575391543622 -0.2598550650020522 1  0.3322366357565687 0.2103437406355584 1  -0.2107023737883974 0.3346675180840228 1  0.2103437406355586 -0.3322366357565688 1  -0.3322366357565688 -0.2103437406355586 1  -0.0812534232444079 0.2029318716322168 1  0.0963670891699373 -0.2227021471835499 1  -0.22270214718355 -0.09636708916993723 1  0.2190419849291031 -0.119559722020513 1  -0.1087485665851406 -0.2146437707845258 1  -0.203317076811764 0.1224557072025287 1  0.2273152369504595 0.09523047733096632 1  0.1600008575320791 -0.01229387630752224 1  0.4050885445567445 -0.09912204850336188 1  -0.4050885445567446 0.09912204850336188 1  0.09892063655748151 0.4043128383227373 1  -0.0991220485033619 -0.4050885445567445 1  -0.03455328827880966 0.415059611947992 1  0.03436480353493904 -0.4160877638365437 1  -0.4160877638365438 -0.03436480353493905 1  0.4161504239778664 0.03434708459804784 1  0.08365969031159125 0.002330153091588407 1  -0.2229390493464861 -0.3596307773124036 1  0.2233161458114676 0.3613387240591179 1  -0.3596307773124037 0.2229390493464862 1  0.3596307773124037 -0.2229390493464862 1  0.390515935037582 0.1636195434767474 1  -0.3904839655777235 -0.1636285837506716 1  0.1636285837506716 -0.3904839655777235 1  -0.1638876663325903 0.3923623890350764 1  0.04384282532259486 -0.07015857662322166 1  -0.08011765448211583 -0.04742160867833382 1  0.3226797123127975 -0.06724769324647022 1  -0.06791911746174686 -0.321011490405228 1  -0.3210114904052281 0.06791911746174685 1  0.06791597125071956 0.3133322485632025 1  0.01300029933573454 -0.3336582341509043 1  -0.3336582341509045 -0.01300029933573453 1  0.3312625026944596 0.01634298279090017 1  -0.01890231217342257 0.3207204227358019 1  0.1593044755135351 0.2337613396768917 1  -0.1672342929047866 -0.132773056500856 1  0.1327730565008564 -0.1672342929047865 1  -0.04057312736015202 0.07214036689862746 1  -0.1216583376241947 0.2551263578533178 1  -0.1373396390671733 0.1663016697769111 1  -0.03904193612438347 -0.1752447455726509 1  -0.1712751339250678 0.03771861162601834 1  0.1644461726501372 0.141775045830479 1  0.1511790319801663 -0.2932104380950028 1  0.2916869062741757 0.1510279462551886 1  -0.2932104380950028 -0.1511790319801662 1  -0.1893770942190298 -0.2599721157064441 1  -0.2635796411850183 0.1942911785362421 1  0.2605218924745163 -0.1907284886484514 1  0.05220398401757594 0.06955290408511863 1  -0.2805626972065101 0.328998778205796 1  0.3302393900494474 0.2819473926997965 1  -0.3318449512303389 -0.2832306080595193 1  0.2832306080595193 -0.3318449512303389 1  0.04832342905271358 0.1877808363511603 1  -0.065696898690541 0.1410851320361489 1  -0.02462254826085986 -0.09310549957314221 1  0.09208911815902721 0.2491550245754104 1  0.4381772089070252 -0.03451370530671609 1  0.03443218218138764 0.4378039052542489 1  -0.03451016151933785 -0.4381646768787607 1  -0.4381646768787607 0.03451016151933783 1  -0.05325027090288098 0.2628866993452785 1  -0.09689651082758409 0.02496399895247979 1  -0.2319704355840505 0.2759202109613136 1  0.2310272246689467 -0.2710730170749428 1  0.2726687263497516 0.2357350096492068 1  -0.2707894989087602 -0.2307430766710918 1  0.0336413547679618 -0.2027252641275629 1  -0.2018898444819838 -0.03359141884633879 1  -0.4063469422152409 0.1729714595109716 1  -0.1729714595109716 -0.4063469422152409 1  0.1703351844603517 0.4017734051354755 1  0.406346942215241 -0.1729714595109716 1  0.1062645597092786 -0.4273938075414044 1  -0.4273938075414044 -0.1062645597092787 1  0.4274699861971816 0.1062430180279853 1  -0.1055593867415405 0.4239082997540863 1  0.2114787942763156 -0.05534444370504381 1  0.2111840717711281 0.02625652447817698 1  -0.01987966435303436 0.1991166824559048 1  0.09743269749791104 0.1212317405257936 1  0.07902357234820491 -0.1415259639585728 1  -0.1527864160148222 -0.07674833379122445 1  -0.2932561548882097 -0.3421707315115853 1  -0.34197627736778 0.2930487078747591 1  0.2933466339041634 0.3427676239539843 1  0.3421707315115853 -0.2932561548882097 1  0.3839561780338137 0.2360638943783668 1  -0.3840708713079414 -0.23615
[...]
<PointData  Vectors="f_15"> 
<DataArray  type="Float64"  Name="f_15"  NumberOfComponents="3" format="ascii">-9.6036335789110139e-09 -4.3909152726079510e-09 -5.1208975713234618e-09  1.3390710830295600e-08 6.5476741006517204e-09 -6.1514243752411256e-09  9.2359311314878562e-09 -1.6169941717063695e-08 -5.8431617858395233e-09  -1.0149599307811640e-09 1.6723918932090509e-08 -6.6026201705760228e-09  -5.9603951672836502e-08 -9.3023422178167253e-09 -2.3841525752120679e-08  4.6309446776174927e-08 7.1917155124382705e-09 -1.7567345030150093e-08  6.8392219583761397e-09 -5.3355003961366680e-08 -2.9531383835833701e-08  -7.4140190534995403e-09 5.5391382428420092e-08 -2.7938895670592327e-08  1.6666002090565479e-09 -7.1800675797181944e-10 -2.3607527941709407e-08  1.2455304891037966e-09 8.3950296887617220e-09 -2.9565390472344584e-09  2.3204310232054556e-09 5.7407078805107606e-09 -7.6114481467581113e-09  6.6377122400135243e-09 9.4029234110407505e-09 8.3748965410428477e-10  9.7225575231090176e-09 7.2389271351890940e-09 3.1909115186617200e-09  -7.2045530814865244e-10 1.8011928018468903e-09 -5.1542199591553492e-09  4.8273884582087515e-09 2.1039997407945978e-09 2.4698348410947131e-09  1.4628402272802433e-08 -9.5860295697043170e-11 -2.7397266933107903e-09  1.0981549140204305e-08 4.7941487974988301e-09 -1.0162366268104142e-09  1.2914516583858469e-08 -2.6399920900657688e-09 -1.3126658790563404e-10  2.8493540048940481e-08 -2.2627825572869713e-08 1.3615488305617572e-08  8.9059312844303533e-09 -4.4169860370476102e-09 -1.1059286962990598e-08  2.0680317513561945e-08 -1.0441245183608990e-08 6.0705031782681487e-09  6.6074810425848250e-09 -1.1908601433485201e-08 -3.1148638611404579e-09  8.1712787796412283e-10 1.5164804153171224e-09 -4.1524113468639988e-09  8.2922845703133202e-10 -1.1487671189646767e-08 5.6424855094772782e-09  -2.2154977506148993e-09 -7.7277949216742965e-09 -1.2507689691770589e-08  1.2019640071285981e-08 -3.1462797002581015e-08 1.1185867557051344e-08  -1.8112463724775841e-09 -9.3303993517391313e-09 2.4472938890153580e-09  -1.4381220636027449e-08 -1.7551778534998321e-08 1.3148919882550344e-08  -3.6759770956727654e-09 -2.9459549806611725e-09 -6.6560477936830050e-09  -5.3628518825138698e-09 -1.7185351807467166e-08 5.3032130412089028e-09  -1.7190633737440322e-09 -2.2366172570671653e-10 -4.1390918703989888e-09  -1.2244338157781898e-09 1.5066768691463533e-09 -5.3901519315394211e-10  -4.2888434257172538e-09 2.4553505515091273e-09 -2.2806009812831217e-09  -5.7437232460381782e-09 1.3443312970798010e-10 -1.0882773304557250e-08  -2.3067704261107802e-08 -9.6128917601771844e-09 5.9700994573608281e-09  -1.0618636145511751e-08 8.6488631048930558e-09 -1.5021850827381330e-09  -1.3843034369399068e-08 -1.0765777236289044e-09 7.3367514744192236e-09  -1.8242677209765861e-09 -2.7889457536631054e-10 -4.7281864946913204e-09  -9.5933062845103303e-09 2.3738913485339365e-09 2.9572528576153386e-09  -5.3565812995248593e-09 3.7204776966939043e-09 -6.0079407430193412e-10  4.6828235656352369e-09 5.2634556524788016e-09 -1.7165862310056388e-09  3.1714418697616928e-09 2.7019120188710818e-08 -3.3462067803718891e-09  -1.4509575615386508e-08 1.7406130109241302e-08 1.5469214269230075e-11  -5.2578851106134126e-09 1.8989443222657067e-09 -6.6866006671155529e-09  -7.4279152538040687e-09 -1.8933897751303125e-09 4.4047731248323161e-09  -2.8878638853621358e-09 -1.9475329717922667e-09 -1.2644633943601813e-09  -1.1558713018475483e-08 -1.8050512616540718e-08 6.8786877121950812e-09  3.1154256748923066e-09 -1.4779090494923240e-08 -5.1240564343698076e-09  1.1734804131201484e-09 4.7245831713669436e-10 2.1412984690009541e-10  1.5389847907647957e-09 7.7247658076475671e-09 -1.6462250564727575e-09  -1.0955375841613187e-08 -1.0123208630946406e-09 6.8406516932503395e-10  -1.4304583516938757e-08 -6.0677942869791390e-09 1.3282322998246023e-08  -8.0104324818580345e-10 -5.9489723040650214e-09 3.5958458551332948e-09  3.8144431048090106e-09 3.8988969169665754e-09 -2.3321584682556390e-09  -1.2571801047082511e-08 4.5739864286530582e-09 2.3995076833369915e-09  -8.6957300019296409e-09 3.6334133231018223e-09 7.9571197472677849e-11  -5.9809995015183998e-09 4.3735826062089002e-10 -2.3182114889938661e-09  -4.2991047660302752e-09 4.0651828094806693e-09 4.6955217386626949e-09  4.3471366411825720e-09 -1.9566347103893257e-10 -3.1177120739885560e-09  -1.4612518360065621e-09 4.5656974581619364e-09 -1.9435275316827014e-09  -6.9997136312367912e-09 1.2726756299948080e-08 1.2499740002361726e-08  -2.4872973574707912e-09 -1.3123756734904677e-08 -1.4324478775030428e-09  7.0485271727017608e-09 9.7692087291705888e-09 1.1703175608235010e-08  -1.2305615454210687e-09 -3.5223612347141678e-09 -4.4920973495355218e-09  1.2338534136072439e-08 2.0715538753399119e-08 9.7673669248303244e-09  -4.4481273728158395e-09 1.0950601292994666e-08 -7.8112793404432632e-09  1.5861137664667571e-08 9.1837422070519962e-09 8.4924531429673292e-09  5.0392873299545032e-09 -7.2461371836601841e-10 -9.3940651086355709e-09  1.3936045865540906e-08 8.1630322044054072e-09 2.2831613284713968e-11  2.0409233208645320e-08 1.2284911796962621e-08 1.4568737118720823e-08  -6.6689775451426179e-09 9.1073832742431143e-09 9.0928287029787637e-10  3.1978064112957873e-10 -4.8354732285457319e-09 4.8933228700430187e-09  -1.0839352259541574e-09 -1.7267088873152746e-09 -1.1071455614105432e-09  7.2631325769839653e-09 -1.0809020301066028e-08 -5.2611262891405650e-10  2.1702343560000317e-08 -3.5431873485120895e-09 -3.1456192301754332e-09  1.1242914061345264e-08 -1.0115005652471764e-08 -4.3197262399142385e-09  6.1952650234273567e-09 -8.5765918260343553e-09 -4.1849185823818905e-09  5.3164310623555268e-09 -6.4970185938694517e-10 -5.1175746523272908e-09  8.7748011812105762e-09 -1.5207513048250898e-08 1.4568140455569511e-08  3.4732564248435605e-09 1.5540693996603148e-08 -2.6831573866933358e-09  3.3054032133009873e-09 1.4111083258751237e-08 2.1493243791572682e-09  -1.1622565355108345e-09 -3.4269809641843947e-09 -3.2287746039463662e-09  -8.4617607736701822e-10 -1.6827904966508262e-09 2.2560364390172348e-09  8.3016664240637300e-10 1.9886246385452578e-09 -1.9031021700956469e-10  2.0084841346138753e-10 2.0803217607765043e-09 -6.5421506181141342e-10  -1.2438100561078308e-09 1.2389925764165225e-09 -2.5439552003415020e-09  2.1957737706085212e-10 3.5029056637552616e-10 -6.5719005695448129e-10  -3.0470639214787765e-09 -1.4574015765794989e-09 9.1914466258224432e-10  -6.0532546207609487e-10 -1.9512748095042352e-09 5.4015791460574674e-10  -8.2515749555197460e-11 8.9530568432294811e-10 5.1125923827564417e-10  5.9301358441924275e-10 3.6261613230711623e-09 2.5575757957448912e-09  -2.1799346327313157e-09 1.0424879041348748e-09 -6.2900934108653155e-09  -2.7993681167625703e-08 -2.1519575750046818e-08 5.4006449485750722e-09  6.4285252531985925e-09 2.4680784016959518e-09 -5.6859096041502660e-09  5.7737664896939923e-10 -1.5268891053607307e-09 8.4135828578343179e-11  -2.0162171504198924e-09 1.0030291134430462e-09 6.2430511397413582e-10  -5.4155180161812225e-10 1.0447692530405514e-09 -8.5226917651790635e-10  -8.0068301231970068e-10 -9.9507030026931972e-10 6.0016654731523958e-10  -1.3088764917783155e-09 -2.9338440496524399e-10 5.0991023441808791e-10  -3.8524229066306526e-10 1.2049151545108981e-09 6.3985752590674467e-10  -4.7287061807177614e-10 -9.2591929668561902e-11 -1.0727976890500069e-10  6.7182203604948517e-11 1.9933268088683907e-09 -6.3247640182927602e-11  -2.0696502682059573e-09 6.4965681460107611e-10 4.9883530769087170e-09  -4.5701205415626395e-10 3.6714817978785873e-09 -1.1062734473633961e-09  -3.5312169933724168e-09 -1.1851588530312535e-08 2.2554603321358639e-09  -4.9327683430439496e-09 5.6341928885660797e-09 -4.1856102349726959e-09  1.3550861790539921e-09 4.4115941564300510e-09 -2.1719309382264565e-09  -1.1816356811753335e-09 -4.0915390983470051e-09 -3.1604563292443686e-10  2.5628281255407485e-10 1.6601180667703458e-09 -3.3427550865662866e-10  -8.5861720672554905e-10 1.0053981849042839e-10 -2.3964363828898196e-09  -3.5890249316627766e-10 4.9170487457431339e-10 -6.5429548326842628e-10  1.8381471043718247e-09 5.8866491149887688e-10 7.6972693097735666e-10  -8.0253341927115653e-11 1.1007465746786413e-09 1.0481264776650608e-09  -1.5589380650085516e-09 -9.0308837711449112e-10 1.0944165073628971e-09  8.8304412186061254e-10 2.1650458389404132e-09 1.9580081015494468e-09  -3.0238874709288577e-09 -3.0694184841642445e-09 -3.9816622610309717e-09  2.6303285592400234e-08 2.0709145313814014e-08 -2.5262663386109893e-09  -6.4790162904389178e-09 1.4673776696768979e-10 -2.8672449886859258e-09  2.1818634584843316e-09 4.6566080430003322e-12 -2.8813058890491245e-10  -2.4149236971679370e-10 5.9449277296893645e-11 -1.7359265929371700e-09  3.5328297251231445e-10 -8.4197544809030706e-10 6.5055384232145503e-10  5.4102673291518939e-09 2.1453471921034292e-09 -1.7744261164146954e-09  9.3775342548016702e-10 -8.8284248832782508e-10 -2.5322008053296862e-09  -1.1118142781018274e-09 5.1311378855812000e-10 1.1792851500344974e-09  -2.4189263442675549e-09 -4.2566483995453661e-10 -4.5104562287727805e-11  -3.9350312218748867e-10 -1.4925962044601109e-09 -9.1705263173150014e-10  5.5838644577596212e-09 1.6609889067182161e-09 1.9185529410126159e-09  2.7601211007365412e-11 -2.9468760072843229e-09 -6.4217470836349504e-09  1.6048697856764368e-10 5.5328411194388290e-10 1.1467325897487455e-09  1.0555146799885409e-10 2.8347442512097301e-11 2.1695516480771251e-09  5.1995055951880161e-11 -7.0586045831057651e-10 1.8196812032784934e-09  -1.3585704367289405e-10 -3.4874084323288539e-10 1.5507434718250863e-09  3.2011866723422598e-10 -7.0064842122616529e-11 1.8113611943571941e-09  -1.0636739703535511e-09 5.6378292384456041e-10 1.6243008893873486e-09  1.1056217587344246e-10 -1.6267290068815434e-10 1.0846254147348487e-09  -3.5411262123672137e-10 6.3401977119159781e-11 1.4408696356951476e-09  9.9415545357049265e-10 1.8583490752487008e-10 1.5966208600627505e-09  -1.7041765866874318e-10 5.5791261189194284e-10 2.9199314104933489e-09  -5.3131655439108520e-10 9.7476965636282447e-10 1.4366682102753815e-09  1.0081718297364670e-10 -7.4784596433795294e-11 2.1510285810411359e-09  6.6458175797131101e-11 1.6267453776489525e-10 2.0428932318219442e-09  1.3050830975764021e-09 -1.3007151877888014e-09 9.7195332704511407e-10  -1.5113652174059642e-09 -3.5558132695307767e-09 3.8923391356675018e-10  -2.2653501811129238e-09 4.3717830415265906e-10 1.1756862847920011e-09  1.7083177956425270e-09 1.3595854624707607e-09 1.2881152969768989e-09  4.9374257073763910e-10 2.9426381650007892e-10 2.2808800677508572e-09  2.0267731614025821e-10 -6.1070158600057990e-10 1.0491285553606542e-09  8.6499298607717423e-10 -2.6351795243649028e-10 1.6278393749184326e-09  -8.0899137103784068e-10 2.1968977896717789e-10 1.9627780628744516e-09  2.8977568977127327e-09 2.5987470476312896e-09 3.7600101288040686e-09  -2.2328155672371921e-10 2.6306428388336809e-09 6.9225711498509557e-10  1.0933479513844608e-09 -2.5642817739560665e-09 1.0835110623922106e-09  -2.4086569726331952e-09 -2.0272823794842288e-09 2.4546139301032412e-09  6.0318414021223885e-10 2.5594515927483307e-10 1.9671377868589088e-09  -2.2827486761514140e-10 6.8486165217790561e-10 2.3829129426863702e-09  1.2271688804747731e-09 3.5469598481388542e-10 1.2213226003066514e-09  -6.7473871644643248e-10 -6.8351990894588202e-10 1.0888017239170755e-09  -1.6886055452412838e-09 -9.7810658704694242e-10 4.6765266575084923e-10  -9.5793242824260277e-10 2.4303144517451336e-10 1.5367708143979805e-09  1.1052512450342657e-09 -1.7785438038593755e-09 9.8135982132038567e-11  4.1340348168821842e-09 -3.2948306187445972e-09 -4.8972846475532991e-10  5.4488070541765608e-11 2.6018653212090271e-09 2.0889159549888887e-10  -9.4559817128674710e-10 3.5138343095885993e-09 8.3877770450458616e-11  3.6009713694203903e-09 -5.5628715247338115e-09 -1.8916008225015798e-09  -1.8233263121020579e-09 1.2620038043928424e-10 -5.8719974578527089e-10  1.5925722861374080e-10 -6.6392232703744765e-11 1.8246592882070535e-09  1.0751437326674918e-09 -6.3009444102626538e-10 1.2395829427319795e-09  7.8325481525574181e-10 -5.7370721996295699e-10 1.6585913978046550e-09  -6.3432916400544272e-10 -1.4250121093757649e-10 1.6037625883902780e-09  -4.1907421679361800e-10 2.0619337054220966e-10 2.0684561157440335e-09  3.4504146909026233e-10 -2.8925380636934152e-10 1.7547512635931421e-09  -1.6742844738084920e-10 4.1344803821421173e-10 1.7510535429234574e-09  -3.9867940556988355e-10 2.2822954196368993e-10 1.3068555940602605e-09  -8.3914049078392048e-10 -6.3894379208199474e-09 -5.5624570644558261e-10  -5.2462493054766743e-10 4.7756537417119006e-09 1.9697836460089835e-09  2.0999560531526271e-09 1.3657511872906258e-09 1.4886591414045615e-10  -4.0144606531905448e-09 -4.3554061066192879e-11 9.9564100109411655e-10  -3.7458651631184833e-09 2.9511431285265530e-09 -4.3616936439605397e-09  4.9736114528672857e-09 -1.6449755737003037e-09 -3.0507271553309005e-09  -3.7561323808832860e-09 5.7421372723521284e-09 9.2770045950354232e-10  4.5703562051880180e-09 -4.9670313671466170e-09 7.9279088000596211e-10  -1.8938733544746025e-10 -3.9239437253454675e-10 2.1685188304941794e-09  -2.1875895889647850e-09 -2.2154585794979187e-09 6.1478289401129086e-10  1.1974331717552422e-09 3.9158338205454791e-09 7.7747594075736584e-10  -1.6638050449632519e-09 -9.1394036047594908e-10 2.1140093718119603e-09  4.2327172553162325e-09 -3.2634419183499549e-09 3.7894233848725056e-10  -1.9607795787787651e-09 2.7614525684444226e-09 1.7668279422236376e-09  2.6944643927212614e-09 -6.7155490623135466e-10 3.7806197200829490e-09  4.5333731427441928e-10 1.5653571835253384e-09 2.9517301664058802e-09  -3.6507672010586851e-11 -1.2562306832206323e-09 3.5146160766972385e-09  5.7686522312617537e-10 -9.9647296697972367e-10 2.4695077119987597e-10  -7.6572013135526934e-10 -2.4168496647447242e-10 1.6620430356845051e-09  7.4366326331046402e-10 -1.0165315667654357e-09 7.6460362405684437e-10  -2.8618499170622177e-10 -1.2993941421212065e-10 1.6320495754934306e-09  -2.0207060373782340e-09 1.0367453059102701e-09 1.3265504674182998e-09  8.4020025554154931e-10 3.3711320718504246e-10 1.5321695200790320e-09  5.4021230355020878e-10 4.1683264761196500e-10 2.1805891657504105e-09  -1.5618277495896781e-10 -1.0920267675570648e-11 1.1875028815351377e-09  5.5843612186813871e-11 3.3935100044152919e-10 1.0053466592577326e-09  4.4955261002832903e-10 4.9438368316920568e-10 2.1070474872998127e-09  4.5471162523848230e-10 6.3302682916553356e-10 1.3080699841497775e-09  -3.5548219300113775e-10 -6.2237869472788400e-10 9.3867730440888391e-10  -3.4928153606780546e-10 1.0632120614070592e-09 1.4963418274882467e-09  6.7975270495999466e-10 5.2208988709451417e-10 1.2003941202683653e-09  8.3217166708091423e-11 2.7231812154498515e-10 1.2783211920170197e-09  1.2714555102591042e-10 -3.5416745867114550e-10 1.7557209638386197e-09  5.7118162702774061e-10 -2.3935255991882260e-10 2.3091009528534754e-09  -3.0766255873037509e-10 -2.3704333383535121e-10 2.7889939007723653e-09  6.9143073922944440e-11 -2.9055675473403315e-10 9.9824873378802799e-10  5.8687209691426188e-10 6.3160132521176804e-10 3.8696585670452316e-10  1.4301079166010828e-09 2.1062379440166003e-09 7.4566941943093642e-10  3.3146762257596175e-10 -3.7771914159204527e-10 1.9686905084460562e-09  -3.2319158644272342e-10 -4.4447583922605040e-10 1.2711855267310482e-09  -4.0608981002124523e-10 -1.1423237196822799e-10 1.7808055236625898e-09  1.5068788696594770e-09 -1.4666748964716551e-09 1.4761925960757963e-09  4.4584457270558394e-11 9.3433840066198562e-10 1.9415739453230443e-09  1.1384058904850733e-11 -1.3583954414170867e-09 2.3563971329234015e-09  1.8561677729805266e-10 -3.2146168309689519e-09 1.8856818284630522e-09  -5.1832328609864762e-10 1.2527253133147678e-09 -4.1927483309651635e-10  1.8575888038871583e-10 -5.4065577042069791e-10 4.0869179603656765e-09  -5.2158706148026834e-10 -4.7409190422374215e-10 2.6288436008938734e-09  5.5158125334656333e-10 4.7423941487789190e-10 1.8266084545747698e-09  -2.0536885716919844e-10 -2.1142156938042016e-10 2.0685948353777745e-09  -4.7456591131246079e-11 1.7479926351857969e-11 1.2000065548232103e-09  1.6763083332794202e-08 2.1309786589426943e-09 -1.1242005606638671e-08  1.6788359251681808e-08 1.5892916474040902e-08 8.4739770117873448e-09  -1.7044168161096469e-08 -1.2811097909008799e-08 3.6877499148644627e-09  -1.0723515958085675e-08 6.1446331174405584e-09 -9.0667096594665729e-09  1.5787280909943130e-10 -4.4022801269273766e-10 1.9273336292702386e-09  -2.7432620694556382e-10 -1.5274275721231955e-11 2.2792695529251861e-09  -5.3731053932918279e-10 9.3659749798934570e-10 1.0602837007987646e-09  1.5171493425050247e-09 -4.9245851986182599e-10 8.2482897484401423e-10  1.0006365994241935e-09 7.2685629524597658e-10 2.0274522650150767e-09  1.5037734904508203e-10 -5.7616614043246244e-11 1.7657260731332799e-09  7.4653285232840774e-10 7.9476299523842065e-11 1.5855996789037466e-09  -1.2003709268680445e-10 -4.4227216423960465e-10 1.7536494402919687e-09  -4.2021783389781897e-09 9.3899965346100170e-10 -9.8302303674711005e-10  -1.2772109587729672e-09 -3.3179467056957092e-09 8.1594516036336174e-10  1.0808700483029999e-09 1.7719735558178747e-09 1.3632564518289993e-09  6.8028089229439542e-10 -3.1923411515566564e-09 2.3442889199354155e-09  5.7828665076748473e-09 2.1684670123916569e-09 -1.1933385892184081e-09  1.3921810089489563e-10 -1.6252830470859016e-09 -3.3639226159335439e-09  -2.2219518814949572e-09 3.8203135410014887e-09 -1.4627717053387004e-09  -9.4144266770311593e-09 -2.2105477826435820e-09 -2.3900855620824086e-09  -3.8729548528361381e-10 -1.1807511193482240e-09 1.4658140651061845e-09  -3.5392881687827900e-10 1.4129910047599957e-10 1.2357482757806576e-09  -5.3607331929544880e-10 -2.2073568994659534e-11 1.3631840682948619e-09  -4.4211195427471357e-10 -6.5843778263922055e-10 1.6020363664728007e-09  6.7896305743331448e-10 -9.8793479219243969e-10 2.6931157397877289e-09  1.3590827707918414e-10 5.1921739993874292e-10 1.4701090375312855e-09  1.9171477995976832e-09 -4.1641412869208680e-09 3.2101433760339854e-09  1.4948064648522784e-09 1.1407555566764079e-09 -1.0000579238423222e-09  2.3188102056207649e-09 1.9814056762302868e-09 -1.2743260311689263e-09  3.7258245847030541e-09 -4.9483520411516246e-09 2.8721890795687724e-09  5.7393133773982782e-09 5.1480676267752086e-09 1.5478440797453769e-09  5.7203224106726539e-11 -3.2404018619635052e-09 4.4778334728002611e-09  6.8568005680563402e-09 -1.5360470021278545e-09 3.9780602099016227e-09  -6.9338287380512957e-10 2.7542313093659418e-09 5.5628169366494276e-10  8.0419594253627998e-10 5.9943734679494751e-10 9.0290704029260706e-10  -2.3828839440009837e-10 -6.8806415710712422e-10 2.4056089836538742e-09  -4.6955851921500054e-10 -1.2323160481574882e-09 1.3622644789669212e-09  -1.1912482822102930e-09 1.9325329432594006e-09 7.5659760770129502e-10  -6.1653587530834104e-10 2.8832400892773494e-10 1.6467077436104381e-09  8.1692042330957963e-10 -2.7572498999388998e-10 1.4217796137675456e-09  1.3025411081450422e-10 -4.5581886939890513e-10 1.5291780978010813e-09  4.9867355789344584e-10 2.8255717596896923e-10 1.8944745422940725e-09  -5.4208838100672384e-10 5.2606051497256920e-10 1.5270252568975675e-09  -6.3510164980927947e-10 -1.6612397081911705e-09 1.6381467879604610e-09  -4.0205565275078490e-10 -1.7788494566602452e-10 2.6572402629133877e-09  1.4225782614970962e-10 -1.2124270390000902e-11 2.2109430336378095e-09  1.3000948197449337e-09 -7.7826141158486682e-10 6.1623995970264683e-10  -1.9993838644660776e-10 -6.9096791257522308e-10 7.7531535332635839e-10  -7.2883947598838282e-12 7.8124638811142666e-11 6.9848336699656197e-10  -1.2628049099845635e-09 -3.1608185080300381e-10 1.1632640393268673e-09  2.3547960198393332e-10 -1.8544134931272269e-10 1.8103310450524806e-09  1.3597004950119091e-09 -8.3610132521624315e-10 7.0724549729182704e-10  3.6167406350574554e-10 -3.6355540556547022e-10 6.3034943471387509e-10  -5.5669377158005147e-10 -4.2026593883458688e-10 1.4768457241874921e-09  -1.5224507717412125e-10 2.3721086806335181e-10 1.698999172780987