<?xml version="1.0"?>
<VTKFile type="UnstructuredGrid"  version="0.1"  >
<UnstructuredGrid>
<Piece  NumberOfPoints="1657" NumberOfCells="7161">
<Points>
<DataArray  type="Float64"  NumberOfComponents="3"  format="ascii">0.5 0 0  -0.5 0 0  0 0.5 0  0 -0.5 0  0.5 0 1  -0.5 0 1  0 0.5 1  0 -0.5 1  -0.07821723251988573 -0.4938441702976052 0  -0.1545084971870769 -0.4755282581477057 0  -0.2269952498692269 -0.4455032620944624 0  -0.2938926261455928 -0.4045084971879415 0  -0.353553390592598 -0.3535533905939495 0  -0.4045084971870234 -0.2938926261468564 0  -0.4455032620939436 -0.226995249870245 0  -0.4755282581474761 -0.1545084971877837 0  -0.4938441702975501 -0.07821723252023399 0  -0.4938441702976052 0.07821723251988573 0  -0.4755282581477057 0.1545084971870769 0  -0.4455032620944624 0.2269952498692269 0  -0.4045084971879415 0.2938926261455928 0  -0.3535533905939495 0.353553390592598 0  -0.2938926261468564 0.4045084971870234 0  -0.226995249870245 0.4455032620939436 0  -0.1545084971877837 0.4755282581474761 0  -0.07821723252023399 0.4938441702975501 0  0.07821723251988573 0.4938441702976052 0  0.1545084971870769 0.4755282581477057 0  0.2269952498692269 0.4455032620944624 0  0.2938926261455928 0.4045084971879415 0  0.353553390592598 0.3535533905939495 0  0.4045084971870234 0.2938926261468564 0  0.4455032620939436 0.226995249870245 0  0.4755282581474761 0.1545084971877837 0  0.4938441702975501 0.07821723252023399 0  0.4938441702976052 -0.07821723251988573 0  0.4755282581477057 -0.1545084971870769 0  0.4455032620944624 -0.2269952498692269 0  0.4045084971879415 -0.2938926261455928 0  0.3535533905939495 -0.353553390592598 0  0.2938926261468564 -0.4045084971870234 0  0.226995249870245 -0.4455032620939436 0  0.1545084971877837 -0.4755282581474761 0  0.07821723252023399 -0.4938441702975501 0  -0.07821723251988573 -0.4938441702976052 1  -0.1545084971870769 -0.4755282581477057 1  -0.2269952498692269 -0.4455032620944624 1  -0.2938926261455928 -0.4045084971879415 1  -0.353553390592598 -0.3535533905939495 1  -0.4045084971870234 -0.2938926261468564 1  -0.4455032620939436 -0.226995249870245 1  -0.4755282581474761 -0.1545084971877837 1  -0.4938441702975501 -0.07821723252023399 1  -0.4938441702976052 0.07821723251988573 1  -0.4755282581477057 0.1545084971870769 1  -0.4455032620944624 0.2269952498692269 1  -0.4045084971879415 0.2938926261455928 1  -0.3535533905939495 0.353553390592598 1  -0.2938926261468564 0.4045084971870234 1  -0.226995249870245 0.4455032620939436 1  -0.1545084971877837 0.4755282581474761 1  -0.07821723252023399 0.4938441702975501 1  0.07821723251988573 0.4938441702976052 1  0.1545084971870769 0.4755282581477057 1  0.2269952498692269 0.4455032620944624 1  0.2938926261455928 0.4045084971879415 1  0.353553390592598 0.3535533905939495 1  0.4045084971870234 0.2938926261468564 1  0.4455032620939436 0.226995249870245 1  0.4755282581474761 0.1545084971877837 1  0.4938441702975501 0.07821723252023399 1  0.4938441702976052 -0.07821723251988573 1  0.4755282581477057 -0.1545084971870769 1  0.4455032620944624 -0.2269952498692269 1  0.4045084971879415 -0.2938926261455928 1  0.3535533905939495 -0.353553390592598 1  0.2938926261468564 -0.4045084971870234 1  0.226995249870245 -0.4455032620939436 1  0.1545084971877837 -0.4755282581474761 1  0.07821723252023399 -0.4938441702975501 1  0 -0.5 0.9230769230766027  0 -0.5 0.8461538461535256  0 -0.5 0.7692307692309824  0 -0.5 0.6923076923084392  0 -0.5 0.6153846153858957  0 -0.5 0.5384615384633524  0 -0.5 0.4615384615403821  0 -0.5 0.3846153846169851  0 -0.5 0.307692307693588  0 -0.5 0.230769230770191  0 -0.5 0.1538461538467939  0 -0.5 0.07692307692339706  0.5 0 0.9230769230766027  0.5 0 0.8461538461535256  0.5 0 0.7692307692309824  0.5 0 0.6923076923084392  0.5 0 0.6153846153858957  0.5 0 0.5384615384633524  0.5 0 0.4615384615403821  0.5 0 0.3846153846169851  0.5 0 0.307692307693588  0.5 0 0.230769230770191  0.5 0 0.1538461538467939  0.5 0 0.07692307692339706  0 0.5 0.9230769230766027  0 0.5 0.8461538461535256  0 0.5 0.7692307692309824  0 0.5 0.6923076923084392  0 0.5 0.6153846153858957  0 0.5 0.5384615384633524  0 0.5 0.4615384615403821  0 0.5 0.3846153846169851  0 0.5 0.307692307693588  0 0.5 0.230769230770191  0 0.5 0.1538461538467939  0 0.5 0.07692307692339706  -0.5 0 0.9230769230766027  -0.5 0 0.8461538461535256  -0.5 0 0.7692307692309824  -0.5 0 0.6923076923084392  -0.5 0 0.6153846153858957  -0.5 0 0.5384615384633524  -0.5 0 0.4615384615403821  -0.5 0 0.3846153846169851  -0.5 0 0.307692307693588  -0.5 0 0.230769230770191  -0.5 0 0.1538461538467939  -0.5 0 0.07692307692339706  -0.007594136642501654 -0.004045741957735315 1  0.2671352096201229 -0.02102399694998625 1  0.01764383341409913 0.2536132760584658 1  -0.02666396035831023 -0.2531221455965387 1  -0.2531221455965389 0.02666396035831023 1  -0.2215292578081779 -0.1892038603591107 1  0.1892038603591108 -0.2215292578081779 1  -0.1892038603591107 0.2215292578081779 1  0.2215292578081779 0.1892038603591109 1  0.1385185436720213 -0.09057822738852793 1  0.1444278228516107 0.06230098297709098 1  -0.1036020399044679 -0.1332668134328397 1  -0.1236898625509597 0.09154779714398348 1  0.3276138866914048 -0.1493452764976681 1  -0.1493452764976681 -0.3276138866914048 1  -0.3276138866914049 0.1493452764976682 1  0.1479353928765055 0.322183943053354 1  -0.09663024938828488 0.3427470693423371 1  0.350382753551459 0.09518682362295226 1  -0.3499441325621996 -0.09531085618119063 1  0.09531085618119059 -0.3499441325621996 1  0.3758029057029099 -0.02957633010838067 1  0.02957633010838064 0.3758029057029099 1  -0.02957633010838066 -0.37580290570291 1  -0.37580290570291 0.02957633010838064 1  0.008167023249524813 0.1287506671888682 1  -0.1411725171320288 -0.01707001611904115 1  0.01869295614714423 -0.1422154233579206 1  0.1114116068465904 0.1842585037493884 1  -0.2598550650020522 -0.294657539154362 1  -0.2946575391543621 0.2598550650020524 1  0.2601808590994745 0.2960858335428702 1  0.2946575391543622 -0.2598550650020522 1  0.3322366357565687 0.2103437406355584 1  -0.2107023737883974 0.3346675180840228 1  0.2103437406355586 -0.3322366357565688 1  -0.3322366357565688 -0.2103437406355586 1  -0.0812534232444079 0.2029318716322168 1  0.0963670891699373 -0.2227021471835499 1  -0.22270214718355 -0.09636708916993723 1  0.2190419849291031 -0.119559722020513 1  -0.1087485665851406 -0.2146437707845258 1  -0.203317076811764 0.1224557072025287 1  0.2273152369504595 0.09523047733096632 1  0.1600008575320791 -0.01229387630752224 1  0.4050885445567445 -0.09912204850336188 1  -0.4050885445567446 0.09912204850336188 1  0.09892063655748151 0.4043128383227373 1  -0.0991220485033619 -0.4050885445567445 1  -0.03455328827880966 0.415059611947992 1  0.03436480353493904 -0.4160877638365437 1  -0.4160877638365438 -0.03436480353493905 1  0.4161504239778664 0.03434708459804784 1  0.08365969031159125 0.002330153091588407 1  -0.2229390493464861 -0.3596307773124036 1  0.2233161458114676 0.3613387240591179 1  -0.3596307773124037 0.2229390493464862 1  0.3596307773124037 -0.2229390493464862 1  0.390515935037582 0.1636195434767474 1  -0.3904839655777235 -0.1636285837506716 1  0.1636285837506716 -0.3904839655777235 1  -0.1638876663325903 0.3923623890350764 1  0.04384282532259486 -0.07015857662322166 1  -0.08011765448211583 -0.04742160867833382 1  0.3226797123127975 -0.06724769324647022 1  -0.06791911746174686 -0.321011490405228 1  -0.3210114904052281 0.06791911746174685 1  0.06791597125071956 0.3133322485632025 1  0.01300029933573454 -0.3336582341509043 1  -0.3336582341509045 -0.01300029933573453 1  0.3312625026944596 0.01634298279090017 1  -0.01890231217342257 0.3207204227358019 1  0.1593044755135351 0.2337613396768917 1  -0.1672342929047866 -0.132773056500856 1  0.1327730565008564 -0.1672342929047865 1  -0.04057312736015202 0.07214036689862746 1  -0.1216583376241947 0.2551263578533178 1  -0.1373396390671733 0.1663016697769111 1  -0.03904193612438347 -0.1752447455726509 1  -0.1712751339250678 0.03771861162601834 1  0.1644461726501372 0.141775045830479 1  0.1511790319801663 -0.2932104380950028 1  0.2916869062741757 0.1510279462551886 1  -0.2932104380950028 -0.1511790319801662 1  -0.1893770942190298 -0.2599721157064441 1  -0.2635796411850183 0.1942911785362421 1  0.2605218924745163 -0.1907284886484514 1  0.05220398401757594 0.06955290408511863 1  -0.2805626972065101 0.328998778205796 1  0.3302393900494474 0.2819473926997965 1  -0.3318449512303389 -0.2832306080595193 1  0.2832306080595193 -0.3318449512303389 1  0.04832342905271358 0.1877808363511603 1  -0.065696898690541 0.1410851320361489 1  -0.02462254826085986 -0.09310549957314221 1  0.09208911815902721 0.2491550245754104 1  0.4381772089070252 -0.03451370530671609 1  0.03443218218138764 0.4378039052542489 1  -0.03451016151933785 -0.4381646768787607 1  -0.4381646768787607 0.03451016151933783 1  -0.05325027090288098 0.2628866993452785 1  -0.09689651082758409 0.02496399895247979 1  -0.2319704355840505 0.2759202109613136 1  0.2310272246689467 -0.2710730170749428 1  0.2726687263497516 0.2357350096492068 1  -0.2707894989087602 -0.2307430766710918 1  0.0336413547679618 -0.2027252641275629 1  -0.2018898444819838 -0.03359141884633879 1  -0.4063469422152409 0.1729714595109716 1  -0.1729714595109716 -0.4063469422152409 1  0.1703351844603517 0.4017734051354755 1  0.406346942215241 -0.1729714595109716 1  0.1062645597092786 -0.4273938075414044 1  -0.4273938075414044 -0.1062645597092787 1  0.4274699861971816 0.1062430180279853 1  -0.1055593867415405 0.4239082997540863 1  0.2114787942763156 -0.05534444370504381 1  0.2111840717711281 0.02625652447817698 1  -0.01987966435303436 0.1991166824559048 1  0.09743269749791104 0.1212317405257936 1  0.07902357234820491 -0.1415259639585728 1  -0.1527864160148222 -0.07674833379122445 1  -0.2932561548882097 -0.3421707315115853 1  -0.34197627736778 0.2930487078747591 1  0.2933466339041634 0.3427676239539843 1  0.3421707315115853 -0.2932561548882097 1  0.3839561780338137 0.2360638943783668 1  -0.3840708713079414 -0.23615
[...]
<PointData  Vectors="f_15"> 
<DataArray  type="Float64"  Name="f_15"  NumberOfComponents="3" format="ascii">-6.0869580244720173e-10 -3.0872782613042851e-11 9.9952756647764777e-07  9.0345701845958183e-10 -5.4816046765235535e-11 9.9976341553321328e-07  6.7561680939913734e-11 -6.7561688322111260e-10 9.9953981405967001e-07  1.5173343394572004e-11 1.0887552870466678e-09 9.9978440398456506e-07  -1.0440913672499801e-10 2.8940686607212935e-10 9.9924756727794853e-07  1.1536364551207528e-10 -2.2683964802452308e-10 9.9927289515071590e-07  -3.5670338460807888e-10 -2.7290649399778569e-10 9.9899450604917435e-07  3.0191542629229695e-10 3.0375937981796476e-10 9.9899859121418727e-07  -1.2793823001990558e-10 -1.1227615157883183e-10 9.9911651039645087e-07  -7.1672171165957727e-11 6.6596753577464480e-11 9.9969481686862252e-07  1.0554217693692987e-10 -7.4121209232291049e-11 9.9955188219930926e-07  2.0173554334934653e-10 2.5026641782513181e-13 9.9884890831640962e-07  1.0500436307783855e-09 7.7947601932968875e-10 9.9972345732327838e-07  -1.8806922255215232e-10 4.5683342781367390e-10 9.9939294215715207e-07  -3.0044058590223063e-10 1.0245033652898073e-10 9.9985894253565229e-07  -1.4590168366173004e-10 -1.2823589860886535e-10 9.9966165434420154e-07  3.5014804931648202e-10 -4.7677652237858100e-10 9.9955672887842534e-07  5.7855938616040075e-11 3.3128588338353204e-10 9.9923136635756835e-07  1.2461375094269067e-11 -1.0938285309331034e-10 9.9972145244514401e-07  -6.1023133376504535e-11 -4.5612744398342336e-12 9.9965307702735797e-07  -1.4438409776754283e-10 -2.4428108201948155e-10 9.9881160780671433e-07  8.0238170223456700e-10 -1.0926593364547829e-09 9.9970127158015276e-07  5.9554482240651879e-10 3.6174164084217497e-11 9.9959880259407251e-07  2.8825710566615812e-11 4.9302428211661639e-10 9.9966854896675023e-07  -2.2995164059499862e-10 -5.6220671286212689e-13 9.9977115492264452e-07  -4.7868076001039013e-10 -1.7493329948303598e-10 9.9936969395633935e-07  4.0782793036227844e-10 -7.7467977006644762e-11 9.9932315570233996e-07  -1.2388504746020730e-10 -1.9421811804153009e-10 9.9990203888142220e-07  -2.9188198686907341e-10 -8.6662224777705046e-11 9.9968547919715527e-07  -1.4171148943719297e-10 -2.2924912794297753e-10 9.9885929229681010e-07  -8.9772076708867041e-10 -7.0693831861392085e-10 9.9963496400181172e-07  3.4869751731641410e-11 -6.0008636486065696e-10 9.9955524803887607e-07  4.3691462089761261e-10 -4.4784477241430852e-11 9.9973403895793873e-07  1.6642911460740684e-11 2.6184202771432661e-10 9.9975059404998879e-07  -3.0309192594841420e-10 3.6767543873063781e-10 9.9955316465818363e-07  -5.5226032155146115e-11 -2.2352885820947474e-11 9.9949133218178558e-07  -1.5628775987941230e-10 4.2274429078317283e-11 9.9981613411496801e-07  -1.0070910953315879e-10 2.8553788030143624e-10 9.9979252913077707e-07  -1.4440599977720021e-10 1.6560032314401655e-10 9.9894995789664106e-07  -8.6176729916170919e-10 7.8322508760649235e-10 9.9955552571506845e-07  -3.5175621410274129e-10 -1.0257524528441483e-10 9.9960948690206683e-07  -4.2083937401955277e-11 -2.7408086594866250e-10 9.9991820942012563e-07  2.8026871576206011e-10 -1.8360722793470159e-10 9.9965415868426887e-07  4.1587510151481803e-10 2.7641519735725202e-10 9.9953826871947088e-07  -8.1472459338494051e-11 -4.1538080184688551e-10 9.9966372702726807e-07  6.7234878698233852e-11 -5.0113754076205026e-10 9.9964273571220356e-07  -1.0032578624066724e-10 1.4228240424720188e-10 9.9942066074041765e-07  -4.2904317930071609e-10 1.5212002967049836e-10 9.9989790798670538e-07  -7.6129528118048653e-10 -3.5330466075024081e-10 9.9925913705370401e-07  -4.4069241499155475e-10 -1.7319724983345689e-10 9.9906329671106652e-07  -7.8938949118851761e-10 -4.0451522927450353e-10 9.9944016357484083e-07  -3.9443803134157285e-10 -1.3629136722977759e-10 9.9881517249813039e-07  -3.4546934210119349e-10 -2.5126926530316059e-10 9.9885298227314609e-07  -5.2158008687890864e-10 9.8444535033874360e-12 9.9979248517334857e-07  -4.3531406951405269e-10 -2.2410861871844576e-12 9.9951338192659694e-07  -3.4364005647371620e-10 4.2113021728821360e-10 9.9973160308643538e-07  4.6976283108344952e-11 1.4192308132138234e-10 9.9974011637292741e-07  -2.5895385371242170e-10 8.8088594547388906e-10 9.9916037756947089e-07  -4.4026301640806114e-10 5.7335177880481320e-10 9.9923266765489021e-07  -2.2946626374781540e-10 7.6906451538846892e-10 9.9915975129215384e-07  -2.6339035147448342e-10 4.0648490357440013e-10 9.9853023210229048e-07  -4.1653936755685188e-10 5.6382571329660976e-10 9.9883572030322684e-07  7.4501951717580703e-11 3.5608447620328175e-10 9.9970067557997018e-07  5.1620085265892976e-12 6.5513372310661640e-10 9.9982664546665346e-07  9.8283361946004206e-11 -7.6672813526124216e-11 9.9936562797991934e-07  4.4547933046921780e-10 -9.8999172738080628e-11 9.9992495455706291e-07  5.1725969198265669e-10 2.3289852437310891e-10 9.9923528190597509e-07  5.0183330551834410e-10 1.6752668312050134e-10 9.9916372217790742e-07  8.6737104785411482e-10 3.4462256287965324e-10 9.9955637972344849e-07  2.9290670250888926e-10 6.4933999322719686e-11 9.9856250176543518e-07  4.5811830569728799e-10 3.0320358697174654e-10 9.9873148079770484e-07  4.0384696956995682e-10 -2.6526512825652872e-11 9.9958334879416737e-07  5.3731945136815507e-10 8.1136886380065428e-11 9.9964096518624368e-07  1.3276389016950732e-11 -1.5494268716154381e-10 9.9952658619745165e-07  -3.3118969654968711e-10 -2.6464958068550272e-10 9.9971371254888065e-07  2.7519647059700017e-10 -7.6808307184410190e-10 9.9917263771756253e-07  1.9473735194972255e-10 -5.4927351262419103e-10 9.9911110267861329e-07  3.8779536212958109e-10 -8.0869063557543115e-10 9.9945799883533544e-07  1.0323608260137523e-10 -3.5695631127215920e-10 9.9876680462158532e-07  2.6609937896725019e-10 -4.6181400584999517e-10 9.9895383269711162e-07  2.4239635053820014e-10 -3.8218665771441586e-10 9.9962143157804604e-07  2.0350869061030245e-10 -2.1741761378479275e-10 1.0006566906091963e-06  -3.3168827618006546e-10 -3.5186132938592494e-10 1.0010106645955118e-06  -1.8603533535735956e-10 3.3027934861948764e-10 1.0003674945640488e-06  -4.7076919071537958e-11 4.1219507500419263e-10 9.9994843287198218e-07  -1.6243262856900112e-10 -9.8064730723948897e-11 9.9931689446367090e-07  -1.1139342995150222e-10 1.4444100615107339e-10 9.9950468366749083e-07  -6.5082354579673014e-10 -1.0276939376954857e-09 1.0001079464158406e-06  -2.0693873812697455e-12 5.3659396534994525e-11 1.0000472467263268e-06  -1.0653707424422093e-10 1.2975495799015818e-10 1.0000107170046845e-06  1.8329813442246264e-10 6.4406986099581299e-10 9.9948805936433927e-07  1.6192453591267127e-11 -4.0641573821064391e-10 9.9932667714836354e-07  6.6775321523187707e-10 2.1860467014641039e-10 9.9984746841511324e-07  7.5146155526949687e-11 1.7627554131284567e-10 1.0000767940496631e-06  3.9929633599262575e-10 -1.5315570677861990e-10 1.0000782490956893e-06  -4.7158827217087769e-10 -2.9902003441983368e-10 1.0002930933084701e-06  -3.5083647400703540e-10 1.4165901797849880e-10 9.9978695727840317e-07  1.6132593666482633e-11 -3.1372072507366597e-10 9.9949649764122344e-07  -3.8088891134860991e-10 -1.6471281747681548e-10 9.9916527308324536e-07  1.1446996380708250e-09 -5.1029117114917694e-10 9.9967509344824211e-07  9.7449716115614040e-11 1.5625585600311454e-10 1.0003289503151583e-06  -6.5055882272401426e-11 -3.4586346086664305e-11 9.9999361958271801e-07  -6.9940658808591293e-10 2.0095402588949286e-11 9.9940354991066945e-07  -8.8476280961288548e-11 1.1025917102170493e-10 9.9950294798850536e-07  -2.5539944553902597e-10 4.8507687242665588e-10 9.9973887849525755e-07  2.5936822555542873e-10 2.1840486128811766e-10 1.0000406991019568e-06  6.9093666446644560e-11 9.8538921278903490e-10 1.0003947759188103e-06  3.4653995704228684e-10 -6.0891521217537300e-10 1.0004786757463690e-06  3.5938182119703862e-12 -3.6726458117298906e-10 9.9994871839867031e-07  2.1664729609018919e-10 -2.1564273884463126e-10 9.9987519986990504e-07  -2.2110721791759012e-10 -4.6854898587807748e-10 9.9933995548296728e-07  1.9175484613965583e-10 8.6550385992025471e-10 9.9960278845890793e-07  -2.1758450128662893e-10 -3.4916524346787607e-10 9.9999878031269595e-07  1.7524754294117606e-10 1.1268217823085724e-10 1.0001830045450030e-06  -1.2510536441625309e-10 -8.2773988750035253e-10 9.9995646749228656e-07  4.1249947823267933e-11 4.4063744920427026e-11 9.9967013020435644e-07  -4.2439431678983202e-10 9.0342460476674596e-11 9.9969222814531942e-07  3.4082361336897079e-11 -7.3185127542222778e-11 1.0001440241219005e-06  -9.7623325364824685e-10 1.0025631531110919e-11 1.0001262837896089e-06  9.7156864974485011e-10 4.9848519098779384e-10 1.0000527282704208e-06  4.3782081259978574e-10 7.1758917767005312e-11 9.9986108240395087e-07  -1.2721263333726576e-10 9.2298847135983162e-11 9.9963479205057012e-07  4.1939332567107076e-10 1.1148374086236068e-10 9.9943100230381053e-07  -4.9285054714107632e-10 1.0401786508332316e-10 9.9974190524102493e-07  2.0337563427470118e-10 -3.7992699651485107e-10 1.0005917602489758e-06  7.1951826591130125e-11 -8.4282825788513112e-11 9.9990650041677835e-07  5.5745979097613583e-10 -1.9987469166863403e-10 9.9946369261484653e-07  -2.9697638949780773e-12 5.9488259360581706e-11 9.9961916995374947e-07  -1.7573693034123157e-12 -4.6323649301222088e-12 1.0000749616187994e-06  1.3999835608200215e-10 2.0729920171710741e-11 9.9993361085728808e-07  1.1315505324855221e-11 8.0027220747239750e-11 1.0000272445160903e-06  -1.6428908273497445e-11 -7.2064166854506907e-11 1.0000299858255581e-06  -8.2730237257885249e-11 3.0459465720454780e-14 9.9999818205435255e-07  -7.4859737930302050e-11 -6.2085256628079070e-11 9.9997249348316434e-07  1.1524852519238555e-10 -1.5817024067723264e-10 9.9999781544971115e-07  -6.7576041673780404e-11 9.5799556823805868e-11 9.9998508868048390e-07  1.2974055807595646e-10 9.8803475582291072e-11 9.9989115812458654e-07  2.2020954751029241e-11 -8.0169395937458919e-12 1.0000546341441421e-06  2.7699199954214673e-11 -4.0841143323939111e-12 1.0000512310551494e-06  -2.7353094140877741e-11 -2.6773621030711130e-11 1.0000441277597244e-06  -1.5077623672146595e-11 5.5252232206956045e-12 1.0000625954112914e-06  2.8473949913269594e-10 -6.2342982456104007e-11 9.9983601401632331e-07  -7.8282457063319012e-11 -2.5191625610812290e-10 9.9995752452717492e-07  -1.2072322452909768e-10 9.5856728714187745e-11 9.9987480366947549e-07  2.3786509750921763e-11 1.8797283312306281e-10 9.9989108647125547e-07  -1.3209700462906728e-10 5.7778063693939968e-10 9.9980851561631305e-07  5.9567946714182315e-10 1.4554093436744819e-10 9.9981366291403977e-07  -7.1493383227834578e-10 -7.9989589343019355e-11 9.9963037825876963e-07  1.4454552208238157e-10 -7.0173837320847827e-10 9.9969529838158858e-07  4.4271990853675949e-10 6.7896575752610086e-11 9.9976354155142071e-07  -9.2874272264189958e-12 3.6283556199373790e-10 9.9988779315830668e-07  5.4013770190732140e-11 -4.4020660528392281e-10 9.9982243595490779e-07  -4.4672476502904858e-10 1.4067155082177955e-11 9.9984702648757128e-07  -2.9523860292563514e-12 7.7285347993062002e-12 1.0000652152045384e-06  -1.9646260506789289e-11 -7.5055158653335841e-12 1.0000555741394430e-06  4.2703454125714086e-12 -1.5249231279951411e-11 1.0000481314932114e-06  3.5815605839958357e-11 6.3107790095652626e-11 1.0000214820890496e-06  -3.3178566975430088e-10 -3.6719742128320225e-10 9.9971975492165381e-07  -2.6493482648941575e-10 4.3375806006263970e-10 9.9960463801611736e-07  3.8125248871208468e-10 3.9380306233663583e-10 9.9965540154019996e-07  3.3258460474942770e-10 -3.0244703280096076e-10 9.9970532785941306e-07  3.9184163908328585e-10 1.4824327067746274e-10 9.9975290736698666e-07  -2.4774286705687295e-10 4.0069051688226862e-10 9.9966123132033855e-07  3.8125452563785168e-10 -6.6337560071003414e-10 9.9963547816629616e-07  -4.6487608411379833e-10 -2.1787715068622570e-10 9.9965668432602799e-07  -2.8080521817918331e-11 3.6308502265236966e-11 1.0000410558132727e-06  2.7072931287369565e-11 -7.5470206395694630e-11 1.0000577642717507e-06  -3.0804487316977612e-11 -2.9126790445117671e-11 1.0000408100931651e-06  5.8003227156157000e-11 -2.2197001648480709e-11 1.0000152380473190e-06  -1.7256711525529461e-11 -3.7737745472355085e-11 1.0000186018276969e-06  -5.3448215443078220e-11 2.9333489745134307e-11 9.9999438025610793e-07  1.0435134548261470e-10 5.1569307771270509e-11 9.9999607848642108e-07  2.4044222055947313e-11 5.2692213234073805e-12 1.0000504283116483e-06  2.2910059126970108e-10 -1.7654595800664886e-10 9.9969767785399395e-07  -2.6892424467597084e-10 4.7513868610816456e-11 9.9966286843584135e-07  9.5393047471774540e-11 1.8076266893887881e-10 9.9972374332919192e-07  -7.3595844005701835e-11 -1.5471225484377822e-10 9.9966251608279568e-07  -3.4636497001784481e-10 5.2022701961781602e-10 9.9986462876280925e-07  3.7119969931550037e-10 -4.7954126525023902e-10 9.9961271863444769e-07  -5.0435156561928703e-10 -7.4118349958949458e-11 9.9936174373945526e-07  5.6913513037023134e-10 1.5861715128807248e-10 9.9963742593244505e-07  1.1521330346774068e-11 -6.0978171623432056e-12 1.0000617646748565e-06  -5.7686289810226570e-11 -2.2884256197371631e-10 9.9948980593172215e-07  -6.1944402887840975e-11 2.5463103596441317e-10 9.9946316682828210e-07  -2.7815320901707017e-10 2.7609912158003105e-10 9.9955831160222560e-07  4.0553284699222933e-11 -1.5202044783183179e-10 9.9939407977598057e-07  4.2674732165344544e-10 7.5961783669538861e-11 9.9982278413245012e-07  -4.0423854860702743e-10 1.2181189338861740e-10 9.9980003955901949e-07  -3.8762840089530722e-11 -3.2769190473396185e-10 9.9979684824980393e-07  -5.1901298606094482e-11 5.0804623344279413e-10 9.9960768193292732e-07  4.1610011823043267e-12 -4.3197688561321347e-12 1.0000722039137171e-06  -7.5365687420178288e-12 -4.5419355474197399e-12 1.0000686108770990e-06  2.1219431780964167e-10 -6.6848969732227852e-11 9.9997159179604530e-07  5.1234916598111503e-11 -2.2116169927206784e-10 1.0000027816111205e-06  -2.0621302672354730e-10 -5.2593036445239714e-11 9.9987452238699904e-07  -9.3491748126126696e-12 1.8547629753353242e-10 9.9991420022084859e-07  -2.7272171430018297e-11 -1.2592846190100970e-10 9.9981451802791236e-07  -1.3612812291066432e-10 -1.3259498600278607e-10 9.9998680163031664e-07  3.2852586079055871e-10 4.5746023652435556e-11 9.9996514410859633e-07  -5.0530431306957292e-11 1.7743128050953684e-10 9.9991526545262767e-07  6.0800994462829891e-11 7.6825315840729945e-11 1.0000173449889484e-06  -6.2149157064681295e-11 -3.9699852703042511e-11 1.0000282685151875e-06  3.3820097138656121e-11 -1.2261681108224012e-11 1.0000286066607951e-06  -5.1125725008420732e-12 8.4473639850488711e-12 1.0000676557806800e-06  -5.7164345916598010e-11 1.2545308786717425e-10 1.0000171873368321e-06  -6.5051934480417093e-11 6.7987894727509797e-11 1.0000036981676647e-06  2.4100491794708197e-12 -5.3372147020568994e-11 1.0000374255450224e-06  -5.3355632738276923e-11 -6.2357588930879258e-13 1.0000259359724446e-06  2.8951685377708741e-11 1.3394177552878806e-11 1.0000513655533330e-06  5.1897418457066763e-11 -1.5273580485560113e-10 1.0000352242554383e-06  2.4418190409072402e-10 1.4451682235551136e-11 9.9992960324473987e-07  -1.6880171008669392e-10 -1.0590656719657995e-10 9.9997108151730354e-07  -1.1162334194466806e-10 -1.2052642116759684e-10 9.9995549296096043e-07  -1.4616123866647722e-10 9.2018602586774646e-11 9.9986708942331900e-07  1.3020005480227192e-10 -2.3982680159679163e-10 9.9990083134289598e-07  -2.7849093068600492e-12 1.2225153574402775e-11 1.0000659380061413e-06  -2.3242253716789690e-10 5.2115410082941666e-10 9.9940400019143180e-07  1.1474055092834320e-10 2.4161667248932245e-10 9.9919630811564525e-07  -4.3359299545723727e-10 -2.2148674629376110e-10 9.9948529095093035e-07  4.2764568088456193e-10 -2.4443124717648400e-10 9.9929867808184009e-07  2.2801696306739404e-11 2.9503048728909782e-11 1.0000399875238404e-06  -1.4379091983756694e-11 3.2075591750390090e-11 1.0000407907015111e-06  -1.2096214193389335e-12 -7.4383081381459103e-12 1.0000646960111120e-06  3.6254713206140747e-11 7.3097100197253616e-11 1.0000058039443322e-06  3.4506102577534499e-10 4.7523411684060203e-10 9.9909281762376119e-07  -8.5353871796118171e-11 5.0015579285536814e-10 9.9946623250035595e-07  2.6628796584445761e-12 -4.8350576086462113e-10 9.9946249594917594e-07  -3.4568683027106550e-10 -3.7410429964661599e-10 9.9929951743722015e-07  -7.9684241933063752e-11 1.7455868434727343e-10 9.9995337543834984e-07  -1.1850711668861681e-11 8.4925377605961505e-12 1.0000571449135925e-06  -2.3272645205454504e-10 2.7190871282146860e-10 9.9980891520140833e-07  1.6263693848498256e-10 -9.2771246344413452e-11 9.9995651997466757e-07  1.4916427179469787e-10 2.5433445659463215e-10 9.9997161521384830e-07  -3.0073841700059624e-10 -2.5365689881223701e-10 9.9982342342965142e-07  -1.1962299343303735e-11 -4.3263314345392685e-11 1.0000241571582995e-06  -3.9290117441486537e-11 -2.1642944082386707e-11 1.0000241553538508e-06  -3.1063783408062468e-10 5.7725119693057390e-11 9.9962661108427152e-07  -5.4290659718676999e-11 -1.5607390304197401e-10 9.9981648247618372e-07  1.0499718859887737e-10 2.3051299933096504e-10 9.9963352218114792e-07  2.0847526860083757e-10 -1.3357150908289112e-10 9.9973910671072345e-07  2.1423087380623624e-10 -4.8958833648756500e-10 9.9971998436973835e-07  -4.9352475429472787e-10 -3.7281410994695744e-10 9.9953154692857681e-07  6.3600000120190064e-10 2.0010586110449478e-10 9.9967702884181822e-07  -1.7279509881701507e-10 6.3968333230984091e-10 9.9965224537028556e-07  5.3330649561356783e-11 -3.9807488652592189e-11 1.0000364419549749e-06  5.1584153271305358e-11 1.5842878563122671e-11 1.0000361819140511e-06  6.7683762335404081e-12 3.3103895594591248e-11 1.0000701118679715e-06  3.0969500735435303e-11 2.8096781012438966e-11 1.0000604524634018e-06  7.0965051646813101e-12 -1.2749814390996106e-11 1.0000482808174056e-06  -2.2688064683919162e-11 -1.1142559062435498e-11 1.0000295116375644e-06  -3.9186399699107201e-10 -3.0066903606080030e-10 9.9926113237043667e-07  -2.8547609495428385e-10 3.8893663614051648e-10 9.9941829204497553e-07  3.3922761066524696e-10 3.9485924249915432e-10 9.9933924965426887e-07  1.7884351629969908e-10 -4.2807924835697668e-10 9.9943210403920673e-07  3.5255807936294923e-10 9.3484146076452943e-11 9.9948495018825472e-07  -4.0321559034792274e-10 -1.4732193675157914e-10 9.9942835446327330e-07  2.0035118811949105e-10 -3.5548418182122186e-10 9.9943266063238761e-07  -2.8671461843773871e-10 3.5244040338221383e-10 9.9939485141060851e-07  2.3732447268801188e-10 7.4102245500709232e-11 9.9995029487095767e-07  7.4013290054821961e-11 -2.1261423688085617e-10 9.9995531899012929e-07  -1.7454683779650584e-10 4.1725979407483821e-12 9.9992338881711159e-07  -2.4848206649718698e-10 3.4891946772515683e-10 9.9983013299842990e-07  -9.8826466476432650e-11 4.1467236612266831e-11 9.9999163262903704e-07  7.5921175404950942e-11 -4.6061357102034559e-11 1.0000143098388028e-06  -5.9391110183870510e-11 -8.4519441348177358e-11 9.9989713207587988e-07  1.4973711082059087e-10 6.3182648642903770e-11 9.9992444637090673e-07  -6.3094773201011966e-11 -9.6516165722035704e-11 1.0000086557931959e-06  4.2971647061916067e-11 -6.3170219584162914e-11 1.0000579480935869e-06  2.4597751993452687e-12 -6.0595675679235850e-12 9.9989802054168325e-07  -2.0321792012436103e-11 8.6616165796892457e-12 9.9986801297915670e-07  5.1141965913537481e-11 -3.7139981226825489e-11 9.9984659847127472e-07  1.3564635702511948e-12 -6.6961227608550183e-11 9.9985949806796019e-07  3.8467204372086195e-11 6.5831204325050965e-11 9.9984281956531735e-07  2.5157278027520718e-11 7.9388935444064747e-11 9.9983574025374692e-07  -6.5329078086540469e-11 1.0852503969505996e-11 9.9983831784355135e-07  5.4877782183825402e-11 -2.9927098563780539e-11 9.9983668503034213e-07  -2.3756449466043715e-11 -2.9317536181775849e-11 9.9987149803323471e-07  -3.6036397657579054e-12 -1.4358110105269873e-11 9.9989130226050578e-07  -2.3640184983976841e-11 2.1621343308042669e-11 9.9988365140725200e-07  1.2745434017900137e-11 6.6504776745425348e-13 9.9988392045821524e-07  2.82649