<?xml version="1.0"?>
<VTKFile type="UnstructuredGrid"  version="0.1"  >
<UnstructuredGrid>
<Piece  NumberOfPoints="1657" NumberOfCells="7161">
<Points>
<DataArray  type="Float64"  NumberOfComponents="3"  format="ascii">0.5 0 0  -0.5 0 0  0 0.5 0  0 -0.5 0  0.5 0 1  -0.5 0 1  0 0.5 1  0 -0.5 1  -0.07821723251988573 -0.4938441702976052 0  -0.1545084971870769 -0.4755282581477057 0  -0.2269952498692269 -0.4455032620944624 0  -0.2938926261455928 -0.4045084971879415 0  -0.353553390592598 -0.3535533905939495 0  -0.4045084971870234 -0.2938926261468564 0  -0.4455032620939436 -0.226995249870245 0  -0.4755282581474761 -0.1545084971877837 0  -0.4938441702975501 -0.07821723252023399 0  -0.4938441702976052 0.07821723251988573 0  -0.4755282581477057 0.1545084971870769 0  -0.4455032620944624 0.2269952498692269 0  -0.4045084971879415 0.2938926261455928 0  -0.3535533905939495 0.353553390592598 0  -0.2938926261468564 0.4045084971870234 0  -0.226995249870245 0.4455032620939436 0  -0.1545084971877837 0.4755282581474761 0  -0.07821723252023399 0.4938441702975501 0  0.07821723251988573 0.4938441702976052 0  0.1545084971870769 0.4755282581477057 0  0.2269952498692269 0.4455032620944624 0  0.2938926261455928 0.4045084971879415 0  0.353553390592598 0.3535533905939495 0  0.4045084971870234 0.2938926261468564 0  0.4455032620939436 0.226995249870245 0  0.4755282581474761 0.1545084971877837 0  0.4938441702975501 0.07821723252023399 0  0.4938441702976052 -0.07821723251988573 0  0.4755282581477057 -0.1545084971870769 0  0.4455032620944624 -0.2269952498692269 0  0.4045084971879415 -0.2938926261455928 0  0.3535533905939495 -0.353553390592598 0  0.2938926261468564 -0.4045084971870234 0  0.226995249870245 -0.4455032620939436 0  0.1545084971877837 -0.4755282581474761 0  0.07821723252023399 -0.4938441702975501 0  -0.07821723251988573 -0.4938441702976052 1  -0.1545084971870769 -0.4755282581477057 1  -0.2269952498692269 -0.4455032620944624 1  -0.2938926261455928 -0.4045084971879415 1  -0.353553390592598 -0.3535533905939495 1  -0.4045084971870234 -0.2938926261468564 1  -0.4455032620939436 -0.226995249870245 1  -0.4755282581474761 -0.1545084971877837 1  -0.4938441702975501 -0.07821723252023399 1  -0.4938441702976052 0.07821723251988573 1  -0.4755282581477057 0.1545084971870769 1  -0.4455032620944624 0.2269952498692269 1  -0.4045084971879415 0.2938926261455928 1  -0.3535533905939495 0.353553390592598 1  -0.2938926261468564 0.4045084971870234 1  -0.226995249870245 0.4455032620939436 1  -0.1545084971877837 0.4755282581474761 1  -0.07821723252023399 0.4938441702975501 1  0.07821723251988573 0.4938441702976052 1  0.1545084971870769 0.4755282581477057 1  0.2269952498692269 0.4455032620944624 1  0.2938926261455928 0.4045084971879415 1  0.353553390592598 0.3535533905939495 1  0.4045084971870234 0.2938926261468564 1  0.4455032620939436 0.226995249870245 1  0.4755282581474761 0.1545084971877837 1  0.4938441702975501 0.07821723252023399 1  0.4938441702976052 -0.07821723251988573 1  0.4755282581477057 -0.1545084971870769 1  0.4455032620944624 -0.2269952498692269 1  0.4045084971879415 -0.2938926261455928 1  0.3535533905939495 -0.353553390592598 1  0.2938926261468564 -0.4045084971870234 1  0.226995249870245 -0.4455032620939436 1  0.1545084971877837 -0.4755282581474761 1  0.07821723252023399 -0.4938441702975501 1  0 -0.5 0.9230769230766027  0 -0.5 0.8461538461535256  0 -0.5 0.7692307692309824  0 -0.5 0.6923076923084392  0 -0.5 0.6153846153858957  0 -0.5 0.5384615384633524  0 -0.5 0.4615384615403821  0 -0.5 0.3846153846169851  0 -0.5 0.307692307693588  0 -0.5 0.230769230770191  0 -0.5 0.1538461538467939  0 -0.5 0.07692307692339706  0.5 0 0.9230769230766027  0.5 0 0.8461538461535256  0.5 0 0.7692307692309824  0.5 0 0.6923076923084392  0.5 0 0.6153846153858957  0.5 0 0.5384615384633524  0.5 0 0.4615384615403821  0.5 0 0.3846153846169851  0.5 0 0.307692307693588  0.5 0 0.230769230770191  0.5 0 0.1538461538467939  0.5 0 0.07692307692339706  0 0.5 0.9230769230766027  0 0.5 0.8461538461535256  0 0.5 0.7692307692309824  0 0.5 0.6923076923084392  0 0.5 0.6153846153858957  0 0.5 0.5384615384633524  0 0.5 0.4615384615403821  0 0.5 0.3846153846169851  0 0.5 0.307692307693588  0 0.5 0.230769230770191  0 0.5 0.1538461538467939  0 0.5 0.07692307692339706  -0.5 0 0.9230769230766027  -0.5 0 0.8461538461535256  -0.5 0 0.7692307692309824  -0.5 0 0.6923076923084392  -0.5 0 0.6153846153858957  -0.5 0 0.5384615384633524  -0.5 0 0.4615384615403821  -0.5 0 0.3846153846169851  -0.5 0 0.307692307693588  -0.5 0 0.230769230770191  -0.5 0 0.1538461538467939  -0.5 0 0.07692307692339706  -0.007594136642501654 -0.004045741957735315 1  0.2671352096201229 -0.02102399694998625 1  0.01764383341409913 0.2536132760584658 1  -0.02666396035831023 -0.2531221455965387 1  -0.2531221455965389 0.02666396035831023 1  -0.2215292578081779 -0.1892038603591107 1  0.1892038603591108 -0.2215292578081779 1  -0.1892038603591107 0.2215292578081779 1  0.2215292578081779 0.1892038603591109 1  0.1385185436720213 -0.09057822738852793 1  0.1444278228516107 0.06230098297709098 1  -0.1036020399044679 -0.1332668134328397 1  -0.1236898625509597 0.09154779714398348 1  0.3276138866914048 -0.1493452764976681 1  -0.1493452764976681 -0.3276138866914048 1  -0.3276138866914049 0.1493452764976682 1  0.1479353928765055 0.322183943053354 1  -0.09663024938828488 0.3427470693423371 1  0.350382753551459 0.09518682362295226 1  -0.3499441325621996 -0.09531085618119063 1  0.09531085618119059 -0.3499441325621996 1  0.3758029057029099 -0.02957633010838067 1  0.02957633010838064 0.3758029057029099 1  -0.02957633010838066 -0.37580290570291 1  -0.37580290570291 0.02957633010838064 1  0.008167023249524813 0.1287506671888682 1  -0.1411725171320288 -0.01707001611904115 1  0.01869295614714423 -0.1422154233579206 1  0.1114116068465904 0.1842585037493884 1  -0.2598550650020522 -0.294657539154362 1  -0.2946575391543621 0.2598550650020524 1  0.2601808590994745 0.2960858335428702 1  0.2946575391543622 -0.2598550650020522 1  0.3322366357565687 0.2103437406355584 1  -0.2107023737883974 0.3346675180840228 1  0.2103437406355586 -0.3322366357565688 1  -0.3322366357565688 -0.2103437406355586 1  -0.0812534232444079 0.2029318716322168 1  0.0963670891699373 -0.2227021471835499 1  -0.22270214718355 -0.09636708916993723 1  0.2190419849291031 -0.119559722020513 1  -0.1087485665851406 -0.2146437707845258 1  -0.203317076811764 0.1224557072025287 1  0.2273152369504595 0.09523047733096632 1  0.1600008575320791 -0.01229387630752224 1  0.4050885445567445 -0.09912204850336188 1  -0.4050885445567446 0.09912204850336188 1  0.09892063655748151 0.4043128383227373 1  -0.0991220485033619 -0.4050885445567445 1  -0.03455328827880966 0.415059611947992 1  0.03436480353493904 -0.4160877638365437 1  -0.4160877638365438 -0.03436480353493905 1  0.4161504239778664 0.03434708459804784 1  0.08365969031159125 0.002330153091588407 1  -0.2229390493464861 -0.3596307773124036 1  0.2233161458114676 0.3613387240591179 1  -0.3596307773124037 0.2229390493464862 1  0.3596307773124037 -0.2229390493464862 1  0.390515935037582 0.1636195434767474 1  -0.3904839655777235 -0.1636285837506716 1  0.1636285837506716 -0.3904839655777235 1  -0.1638876663325903 0.3923623890350764 1  0.04384282532259486 -0.07015857662322166 1  -0.08011765448211583 -0.04742160867833382 1  0.3226797123127975 -0.06724769324647022 1  -0.06791911746174686 -0.321011490405228 1  -0.3210114904052281 0.06791911746174685 1  0.06791597125071956 0.3133322485632025 1  0.01300029933573454 -0.3336582341509043 1  -0.3336582341509045 -0.01300029933573453 1  0.3312625026944596 0.01634298279090017 1  -0.01890231217342257 0.3207204227358019 1  0.1593044755135351 0.2337613396768917 1  -0.1672342929047866 -0.132773056500856 1  0.1327730565008564 -0.1672342929047865 1  -0.04057312736015202 0.07214036689862746 1  -0.1216583376241947 0.2551263578533178 1  -0.1373396390671733 0.1663016697769111 1  -0.03904193612438347 -0.1752447455726509 1  -0.1712751339250678 0.03771861162601834 1  0.1644461726501372 0.141775045830479 1  0.1511790319801663 -0.2932104380950028 1  0.2916869062741757 0.1510279462551886 1  -0.2932104380950028 -0.1511790319801662 1  -0.1893770942190298 -0.2599721157064441 1  -0.2635796411850183 0.1942911785362421 1  0.2605218924745163 -0.1907284886484514 1  0.05220398401757594 0.06955290408511863 1  -0.2805626972065101 0.328998778205796 1  0.3302393900494474 0.2819473926997965 1  -0.3318449512303389 -0.2832306080595193 1  0.2832306080595193 -0.3318449512303389 1  0.04832342905271358 0.1877808363511603 1  -0.065696898690541 0.1410851320361489 1  -0.02462254826085986 -0.09310549957314221 1  0.09208911815902721 0.2491550245754104 1  0.4381772089070252 -0.03451370530671609 1  0.03443218218138764 0.4378039052542489 1  -0.03451016151933785 -0.4381646768787607 1  -0.4381646768787607 0.03451016151933783 1  -0.05325027090288098 0.2628866993452785 1  -0.09689651082758409 0.02496399895247979 1  -0.2319704355840505 0.2759202109613136 1  0.2310272246689467 -0.2710730170749428 1  0.2726687263497516 0.2357350096492068 1  -0.2707894989087602 -0.2307430766710918 1  0.0336413547679618 -0.2027252641275629 1  -0.2018898444819838 -0.03359141884633879 1  -0.4063469422152409 0.1729714595109716 1  -0.1729714595109716 -0.4063469422152409 1  0.1703351844603517 0.4017734051354755 1  0.406346942215241 -0.1729714595109716 1  0.1062645597092786 -0.4273938075414044 1  -0.4273938075414044 -0.1062645597092787 1  0.4274699861971816 0.1062430180279853 1  -0.1055593867415405 0.4239082997540863 1  0.2114787942763156 -0.05534444370504381 1  0.2111840717711281 0.02625652447817698 1  -0.01987966435303436 0.1991166824559048 1  0.09743269749791104 0.1212317405257936 1  0.07902357234820491 -0.1415259639585728 1  -0.1527864160148222 -0.07674833379122445 1  -0.2932561548882097 -0.3421707315115853 1  -0.34197627736778 0.2930487078747591 1  0.2933466339041634 0.3427676239539843 1  0.3421707315115853 -0.2932561548882097 1  0.3839561780338137 0.2360638943783668 1  -0.3840708713079414 -0.23615
[...]
<PointData  Vectors="f_15"> 
<DataArray  type="Float64"  Name="f_15"  NumberOfComponents="3" format="ascii">1.9767195989646669e-09 -3.4445979794972355e-09 -9.0217291167948780e-10  -9.5586059459029001e-11 4.3560261282713311e-10 -8.7681818482860338e-10  3.8854531211406911e-09 -4.0174972693804920e-09 -1.9437208679864963e-09  -5.3559710592678042e-10 6.2241591480249616e-10 6.2170974004594913e-09  -4.9953844138447259e-08 -1.0039971103192743e-08 -2.2547594800945392e-08  4.1253917077706455e-08 8.9862749725874282e-09 -2.0764099041487682e-08  9.8546344187004465e-09 -4.3515356532604832e-08 -1.8927623578130120e-08  -1.0273394927801352e-08 4.4163337119741476e-08 -1.8308977534611334e-08  1.6308768089390229e-09 5.1751088397668502e-09 1.7575310096118645e-08  1.7403883807321139e-10 -3.5831487011463300e-09 -3.2743429863568513e-09  2.3890088914588939e-10 -1.2501149259951740e-09 -2.8939198809517604e-09  4.2308662145256476e-09 5.5802960184098113e-09 5.4221393679891346e-09  1.0863093971542149e-09 1.8079092345164205e-09 1.7591469340592539e-09  -9.3138027193930231e-10 -1.7372190849726576e-10 4.2241666457194955e-10  7.2102401919780973e-10 -1.1033884001139122e-09 3.6895918292814799e-09  -3.2729352858334056e-09 -9.8763304279164536e-10 9.1465376841295068e-10  -2.4837556759366306e-09 6.2817724386070701e-10 2.1686477060465059e-09  4.5920770383832182e-09 -4.7295812879544823e-09 2.4387021041234558e-09  2.2586122826603416e-09 -1.0279629095385101e-08 4.0840644214932015e-09  6.4106754796385615e-09 -7.7951441774717982e-09 -3.2982639153511997e-09  2.4057681873404435e-08 -8.5864924920908974e-09 1.5097776531662095e-08  1.1124065987764291e-09 -2.3929177797342944e-09 4.9642380926427821e-10  -4.2287436776089971e-09 7.2106630412093756e-09 1.9148090488912128e-09  -2.2048777248258920e-10 -6.5328151451380742e-09 1.1821281960106834e-08  -4.2285789668191254e-09 6.4724151330238078e-09 -4.1284526774131983e-09  4.1964801790168449e-09 -7.4671529158661057e-09 9.5636470977496473e-09  1.1316215515107618e-09 -7.8785819921665348e-09 3.5347695059368358e-09  -1.0622181699260175e-08 -2.2619695489281563e-08 2.8780521249820930e-08  6.2847384897005739e-09 9.7365916000320552e-09 -4.5678086768515542e-09  -1.5061930707398483e-09 -2.0956169824860430e-09 4.8867231490730238e-09  9.7938074137520242e-10 4.9746073971169834e-10 3.0055824379929021e-09  4.2190552020843916e-09 3.2179119519165704e-09 2.5088106892694230e-09  3.3340949771724980e-09 2.4025869959736694e-09 5.8892060856282094e-10  6.2028285315628375e-09 3.9181639113291832e-09 -1.4845122133703011e-09  -5.1384200187036655e-09 -1.8282408889354824e-09 6.6290671040299107e-09  -1.0486916863569645e-09 4.4005357547836468e-09 -2.1290490447610263e-09  -1.5254758913888430e-08 -1.8901105120248978e-09 1.4636452604381465e-08  3.3182304716326352e-09 -5.2260195928824959e-09 -7.2297366252882072e-09  -5.6432001832223244e-09 3.7594922873342457e-09 8.3285960411659153e-09  -4.1291195029171189e-10 1.2485146019207095e-09 3.9820304661629722e-10  2.8431739989515736e-09 2.1072921949675836e-09 1.7809471505242297e-09  1.5640479571910572e-09 9.9451853465071180e-10 2.6324134035657823e-09  -1.8984257716979255e-09 1.0543281210495883e-10 3.6890412349088883e-09  1.1028513240186081e-09 -5.7733805549153218e-09 -1.6548309554885663e-09  -4.4066095398195513e-09 7.0730315695497264e-09 1.0582891040359772e-09  -1.2514058599260481e-09 -2.1386709615342795e-10 2.5329679419650086e-09  7.3926322840137349e-10 -6.6008162795278473e-10 3.7990422475274521e-09  2.2833122116189452e-09 -2.6439101770924430e-09 -2.9829002319801166e-09  -9.8114593131351311e-10 -9.4784964784729418e-10 2.8600046144133284e-09  -1.9398385794024649e-10 6.9003122360002941e-09 -1.9331295262732028e-09  -1.0833898011712610e-08 -9.7981296891692667e-10 -9.4520741694297100e-10  -1.6888615536484420e-08 -9.2719726638288309e-09 1.2793124121081058e-08  -1.3769108493550157e-09 -7.6649259288654922e-09 6.4499553548494577e-09  5.6254133744287008e-09 -1.8619524916655717e-09 6.1201385777404701e-10  7.4812468424270021e-10 -2.9432283362838738e-09 -1.8356769980501994e-11  2.4064145632712473e-09 -1.5754036088664444e-09 -5.2874122278098994e-10  -2.1284231927398980e-09 1.9739645262110593e-09 2.4358935011675913e-09  -4.2466014868684427e-09 2.6820460785718501e-09 5.0838473996638350e-09  2.2867981338334091e-09 1.0739271584725741e-12 -2.9467296942910101e-09  -9.4943884003535430e-10 -5.5309588402152439e-10 -2.7360702163889143e-09  -2.9825706594154526e-09 6.9379394175518490e-09 9.2179981807663381e-09  -1.2453253217193980e-09 -5.6384577904344124e-09 1.7021180138298114e-09  3.9992878587734993e-09 -2.6957407641938021e-09 3.9682233122600181e-09  -6.4233732955189473e-10 -3.2328063141050807e-09 -5.3956771825397545e-11  -3.1077788675206286e-10 1.6815004948589397e-09 3.8745391253836702e-09  -2.5271046457478970e-09 2.2574204720593365e-09 -2.4495141166105078e-09  1.3226964409584509e-08 8.3225905606804821e-09 1.0461935759499675e-08  2.5331392943030880e-09 -2.2657905579833997e-09 -5.7719332489975759e-09  8.3376890015120201e-09 5.1297567568982939e-09 -2.1940090344779231e-10  1.7009164315742221e-08 1.1047825779682364e-08 1.3102023258854157e-08  -3.6798287587920892e-09 7.1745339545965923e-09 3.2137440251571293e-09  -1.4620762921685067e-09 -3.4101452753176601e-09 4.4112168051763071e-09  -1.5764642176692676e-09 1.8692352079414601e-09 2.3639479985597072e-10  -5.0290295135625081e-09 2.1454454124081005e-09 -1.8947534727460563e-09  4.4303875477060314e-09 -2.2287430673007435e-09 3.9210292400463399e-09  1.2635641897632752e-09 -1.3167201643169372e-10 1.2200395925194316e-09  -6.1448621119408324e-09 3.0561744876518973e-10 -3.8055556299765722e-09  1.8872266045623391e-09 -8.1982997196602845e-09 -1.8695904259545388e-09  9.3007415703921490e-09 -1.6002559478344793e-08 1.3292513728039600e-08  5.2868230562786552e-09 7.1572698856986916e-09 1.0595435100298000e-09  -1.7155192361883599e-08 1.3811067072955037e-08 9.7149367186035167e-10  3.1022568792058547e-09 -1.0746824140706832e-09 -3.5207023036593382e-09  1.5040169879240550e-10 -2.4843623087252643e-10 -9.1546687551072300e-10  3.7898016329363872e-10 -2.2552383442573429e-10 -3.3725558410610465e-10  -5.1137244635195414e-11 4.5516923062144014e-11 1.4953361315547416e-10  -1.9347403756343905e-09 -5.3521781293731443e-10 -4.3923133586256553e-10  1.0811989800171406e-09 1.4907653769110105e-09 -1.4061840127688765e-10  -1.1445463714218150e-09 -1.0254229926066817e-09 4.3931014658417066e-11  3.3493090204277575e-10 2.6659649581277261e-10 1.8195416602217810e-10  1.6537725516300517e-10 -5.5610878643795322e-10 5.1769518022744956e-10  -1.0371796054942199e-09 -9.6635501053890555e-10 -2.8117183138569604e-09  2.0359807445012557e-09 -5.7863681130675730e-09 1.1772264729721442e-09  -2.0398142516484987e-08 -2.3523107501801098e-08 4.7179105713751751e-09  2.1826101666207496e-09 9.4680527311805379e-10 -3.5587029872322797e-09  -2.1343318608685474e-10 -1.0812577319355826e-09 -1.4798747533363032e-09  -1.5299854279642234e-09 -5.2643405875177748e-12 1.2882338047780368e-10  -3.7736671315455246e-10 -6.5482407159256905e-11 4.5874035262785957e-11  8.2456265944935874e-10 3.4084905668638981e-10 -6.1435037530583387e-10  -1.8898414020366603e-09 -2.9768671758932826e-10 -8.2563221652680441e-10  1.6291888231059420e-09 2.5675417448357062e-10 -1.2409571732893645e-10  -7.2269052415227147e-10 -6.8354472893877802e-10 1.0344200446340831e-09  1.4878466969767826e-09 -4.7330007551498087e-10 -4.7631317257108707e-10  1.5770509558437173e-10 -1.6484825123812520e-10 -2.3243330643158739e-09  1.1218872410475426e-09 7.6176615440002866e-09 -7.9425372040604854e-10  1.3960324041892006e-08 -1.0345488627290346e-08 3.4294989999461004e-09  -1.6418451946950504e-09 -2.1864707484294731e-09 -6.1824765940554906e-09  -8.9984075551198418e-10 3.4380834291463756e-09 -1.1560192718952093e-09  -2.9011444427256149e-10 -1.1119474004698192e-09 1.0322939713730841e-09  -9.7578905036057806e-10 1.7551715228631941e-10 -2.6008782870607966e-10  1.0762961235351031e-10 -2.0648755844797527e-09 -1.1111542183868113e-09  -1.2337920113934906e-09 -1.7443611252127334e-09 -2.6834560867819908e-12  5.2796804868957405e-10 1.6553979761159126e-09 5.4517544837054329e-10  -1.3964876584907878e-10 6.5355270392761101e-11 -1.0471059127814166e-10  -1.1821050351405050e-09 2.6912289103925617e-10 6.8320598955958845e-10  -2.0563426508718323e-10 1.1743426340369686e-09 -3.5866227676462231e-10  -2.9711417053451847e-09 -1.1601243283872319e-09 -7.2653955814019561e-10  2.5340176333338915e-08 2.8874732681915759e-08 -7.9690218038738891e-09  -2.5172923450489423e-09 -9.2950935460773012e-10 -3.2989796824311057e-09  2.1168212495025928e-09 -7.2580720088305298e-10 -1.7062398249393649e-10  1.0194799192883522e-10 3.4477361803050147e-11 8.7664130290323920e-11  8.9444881440550865e-10 -4.3932745317655933e-11 1.7372736878381340e-10  5.3445347303749458e-10 2.1774636295656498e-09 -1.7879778645699014e-10  -9.0443791229569465e-10 -1.4376710396862778e-09 -5.3980887882968667e-10  -8.3990054360329237e-11 3.7954105129201529e-09 2.4166362543601266e-09  6.9505275449449510e-10 1.5759092444727053e-10 -2.8106800601300839e-10  -5.2075177409982228e-10 -7.5215554013683884e-10 -1.6987769238020033e-09  8.0206878262896925e-10 9.1602834054953345e-10 2.2098879163836763e-09  -1.9214987264922471e-09 -1.5814023300401908e-09 -3.1340572389530891e-09  -1.6178939117489124e-10 -2.9711797615392879e-11 -4.7618025488134120e-11  -2.1156085745081314e-10 2.3254058480286544e-10 -9.6325577973379659e-11  3.2913888328379053e-11 1.6419125786845910e-10 -1.6691346782830520e-10  7.1994051845504687e-11 3.6318332077178908e-11 -1.0936776738723447e-10  -2.6989066080807019e-10 1.3665382605176386e-11 5.0910248868417288e-11  2.5194108980318701e-10 -5.7118548046221891e-10 -4.5678679310578265e-11  9.4986416373373396e-13 1.5852435445509064e-12 5.5084331266210778e-11  -3.5853988941800703e-11 1.4040594761077807e-10 -2.1175938268946324e-11  2.9033200225123763e-10 2.1510960370685673e-10 -4.3142517549016468e-10  -7.7673052212041623e-12 -1.9322663298920871e-10 -3.0015479601196780e-10  2.6969546224584101e-10 5.4093266397429662e-11 4.2823253728926639e-10  7.3017489764108777e-11 5.4116603691137132e-11 5.5695611236994844e-11  4.4002562059667021e-11 7.9392045053739386e-11 -9.1720609768182243e-11  -3.1577649581970850e-10 8.7121103526333669e-11 -3.0196321711624171e-11  -3.9384461328474953e-10 1.0252388967421361e-09 1.9593695809177751e-10  3.1105899737451783e-10 -4.2703460884225210e-11 3.0770234213432810e-12  -1.3833487496212591e-10 -1.4538004710130698e-10 -7.7841871257911019e-12  1.1780074429985684e-10 -1.1939590792520456e-09 6.0431032684278382e-10  -9.8744188982176077e-10 -3.8644243201476338e-10 -2.4092682234272244e-10  1.6996341555538920e-09 2.8105698727910517e-10 7.7383909209400686e-10  -2.4371756630120295e-10 1.2460804725393406e-09 1.1247623256380121e-10  2.3399255748826595e-09 2.8285237286147756e-09 1.2779738842354478e-09  9.3886959273637260e-11 1.4189173780068382e-10 1.0291564374004372e-10  3.6702479257065000e-10 2.1801001614683693e-10 1.1003816260739180e-09  -2.3249547594836454e-09 -1.9651979527736098e-09 9.3438830118936288e-10  -2.7594925982633015e-10 3.1274723733843276e-11 -1.0761040153972620e-10  2.1576250331718172e-10 -1.9957156291039136e-10 1.5347262214870693e-10  -6.3117361211364287e-10 -6.6855356771577296e-11 3.9851516605845173e-10  4.2961608399061233e-10 2.6823601233268371e-10 1.8238356950609782e-10  1.5278258739238860e-10 2.7963611033133424e-10 9.5117552786570037e-11  7.4145124292895877e-10 -1.5607602998745318e-09 3.9591211039334751e-10  -8.0968314641927090e-10 -3.1115356074402783e-09 -1.6475796996909865e-09  -3.0353624789600393e-10 -4.6609960305381102e-11 4.7371655681629274e-10  3.0645818067233732e-10 1.6374886288002483e-09 -1.8913375533837534e-09  -3.8733118890416681e-10 1.3843473136445984e-09 -1.2280041748713792e-09  4.9509295983343524e-10 -2.4658698001638407e-09 -1.6246877540853199e-09  -2.3534543457981439e-09 -2.4475036778634179e-10 -1.2832239312872117e-09  1.5251042995594472e-10 1.8150521664893718e-10 -5.0675984274820885e-11  -2.9731820325930896e-10 1.0502600749234651e-10 -1.0447344128806066e-10  -4.4539917673995589e-10 6.4655544176918112e-11 -1.4496187013561426e-10  2.8798158663306717e-10 -2.9797133391650993e-10 2.9862907172144493e-10  1.7916319010109551e-10 -2.7299333620680212e-11 -9.9836708320446771e-11  -2.1126799423772362e-10 3.0266280356553508e-10 1.8738622794338332e-10  8.1430084442874613e-11 4.4303245477254421e-11 -1.3975337412474013e-10  1.3852610240314265e-10 -3.0961780022857640e-10 1.4072928983134114e-10  -2.1544172376022067e-09 -4.9834453239853744e-09 2.6708343678750631e-10  2.0771900654981200e-09 2.2191987121566702e-09 -3.8756576751994467e-10  3.7907170073050535e-09 -2.7793472509057093e-09 4.3835985035768978e-10  -3.3388620900658235e-09 3.3975068095925625e-09 5.6628061419004159e-11  -3.7105286721459498e-09 -3.0313882844285939e-09 -4.7285069322349239e-10  5.2459216119957825e-09 3.7424316957856140e-09 1.5537310890166372e-09  1.4651829506722346e-09 5.5441793528543397e-09 1.5404616106987503e-09  9.4991972039339341e-10 -4.0757612924082542e-09 9.5164890558287023e-10  -1.1370414963984520e-10 3.3933969762908338e-10 -1.8360647527814821e-10  -2.0423257539264409e-09 1.9053042117452084e-09 1.0375436350494270e-09  1.5204848566421972e-09 -1.8806565254513694e-09 1.1634944125664584e-09  -8.8132051496976689e-11 -8.9701482590352274e-10 -5.0216536102420040e-10  4.2038839534589898e-10 6.3864652240530915e-10 5.2311949708673926e-10  -2.8646446349345264e-09 1.7520976521926805e-10 1.8374079090382817e-09  3.4210394484850756e-09 1.6606252175618473e-10 3.5397000532270533e-10  -3.6323039691255309e-10 2.7273877909068529e-09 9.6694151966248355e-10  9.4776151755305457e-10 -2.5405117628998557e-09 2.5170640282463853e-09  -1.5700540948145928e-10 -6.8697630759389227e-11 1.1754496298094715e-10  3.5198152753835056e-10 4.6561561711427880e-11 -5.5544503920558438e-11  -2.1588695822673422e-10 -1.2574618655118644e-10 -2.2252539230127951e-10  -3.0451187366016056e-11 1.3344411713012595e-10 -2.3111872786822399e-10  4.1140988410593256e-10 5.3118348172258906e-10 3.7494305104864473e-11  2.4697333534410398e-10 -4.4006117653835787e-10 8.8840898173351881e-11  3.3587240540459328e-10 -1.2980030231835350e-10 -1.7588500213569463e-10  -1.0272958265968029e-10 -4.6254478057814567e-10 -6.5200067285108592e-10  -8.0053963967203628e-10 5.7867307923621988e-10 -1.4571615726347761e-10  -5.4066946279435028e-11 -1.2517798271447905e-10 1.5055645716960383e-10  6.8758558038063244e-11 6.6059365115422486e-11 -3.5918912140476260e-11  6.3094206469912294e-11 1.0557889562072466e-10 2.1105420772288784e-10  3.0189681841301139e-11 -3.5801839727700045e-10 1.4246268195146593e-10  -2.5631906549472899e-10 -2.0027041718535367e-10 2.2891135206311387e-10  1.4367588495984722e-10 -6.5813382312650223e-11 -1.2594767977134811e-11  3.6795599730682717e-12 5.7815724101972332e-11 2.6866476345093252e-11  -1.9639812842939364e-10 -7.2653738515519132e-13 -2.2426436685084295e-10  1.3849020996245513e-10 8.3175793854226625e-11 -1.3945183528250725e-10  2.3874724934728034e-10 1.5767326871236976e-10 -3.2594489389199155e-11  3.5373039846580765e-10 -5.9185481961207126e-10 9.4763352943569345e-11  2.8268046860755334e-10 8.8420251889904966e-10 -4.4642318567369329e-10  -6.4896506311977010e-10 -6.4690996586663624e-10 -2.5080268699251516e-10  1.0924538759505911e-12 -2.1327228390672694e-10 -9.8662518113433324e-11  7.8062012836897760e-11 9.8118591520550020e-11 1.3143155824569243e-10  -9.0149667644230881e-11 -1.3231170051872430e-10 7.5777312684145751e-11  1.7293946194274702e-10 -6.1227915037272750e-10 -1.4969118101266050e-10  1.2082964022071323e-09 -2.9821899721405595e-09 2.1722959251387939e-09  -1.2016432130907722e-09 -4.5231884050024069e-09 4.4654990281838997e-09  3.8069514414646714e-11 1.9550254667036864e-09 7.0678005892534956e-10  -1.5117360888945529e-09 2.9284861276093350e-10 3.4718534693200742e-09  4.3871189926285192e-12 2.1999987972595139e-10 -2.9967341553312698e-10  -1.4661584958455511e-10 -1.1695426356963651e-10 2.4129627678629812e-10  1.7195645003844056e-10 -5.1278904651564576e-11 -1.8397408061486350e-10  3.6878238345367117e-10 2.8159586839581053e-10 3.0375436119035321e-11  1.3546920683054112e-08 1.6369900459925208e-09 -8.7169824444905186e-09  3.8148065336540021e-09 7.7769252201154527e-09 -1.6478701832153509e-09  -2.7314426645480504e-09 -6.2432000114836816e-09 -3.6680576080621385e-09  -8.2862758939712455e-09 3.8824211845086160e-09 -8.5590286519545971e-09  -7.8756937488375593e-11 -2.2738500768200682e-10 7.0454814880725862e-11  2.6429371252065653e-10 2.1879378218987824e-11 9.2107176567665184e-11  -4.4509706588000519e-10 2.5836483334051210e-11 -3.9340835285356004e-10  -1.9897044198523567e-10 -7.8934660256899558e-11 -1.3681151641903221e-10  2.2566246979229186e-10 -8.2987188425955710e-10 -3.5363533766808780e-10  2.4629878139695013e-10 -1.9141584561498934e-10 -4.5322953328263759e-10  -5.6810635009581912e-11 -1.1763413708093439e-10 3.3595865215826288e-11  -6.6264642421645705e-11 7.3458465253653781e-11 5.9204372167993704e-11  1.2240096424808702e-09 -9.8772258624089356e-10 1.8172017337248102e-09  -1.9228334696136603e-09 -2.0885789092205148e-10 -2.8921008080348245e-09  -5.5121616288636717e-10 -4.6322229528169715e-10 -3.3322628579867891e-10  -1.3731969217435944e-10 1.6377146087732908e-12 -5.9687183789225545e-10  2.0964054115144807e-09 2.6092442711585055e-09 -1.6334852247570817e-09  1.5946710697952536e-09 2.7856815593865734e-09 -1.6242084781467258e-09  -3.6590081000021974e-09 2.5268361027422368e-09 -2.3720726790598203e-09  -4.3719647840859819e-09 -3.0804564477724424e-09 -2.0188024865781067e-09  3.4728570865753587e-10 2.4695121464503849e-10 1.8483543417168645e-10  4.0674887656537734e-10 2.0596145240379669e-10 -3.2354206940628125e-11  1.1621291327341945e-10 -6.6336402066562272e-11 -2.0266911395501500e-10  -7.9589392731699211e-11 1.3499551050674127e-10 -1.4524805354737402e-10  -1.1645292008515351e-10 -1.0836606774556969e-10 -3.0773072513758812e-11  -1.9275797407117734e-10 -3.7230795051985396e-10 4.8590061763357691e-10  4.0609406496666809e-10 1.7302975478198858e-09 1.1615675545095461e-09  5.2249761323515130e-09 2.3681495422293324e-09 -1.2149363833090979e-09  3.4909403914778283e-09 -6.0223662808735959e-09 1.4991990519303708e-09  -1.5539532160231725e-09 -9.4611546396260115e-10 7.8703237694981944e-10  2.5211849725316336e-09 3.0231650507450723e-09 9.1693126431267051e-10  -2.2853899958923269e-10 -3.4959152510424211e-09 2.1393851701141743e-09  3.1812925481109179e-09 -8.2245329908397182e-10 2.3629260707443016e-09  -8.6115849298930588e-10 6.7991990478947980e-10 8.0114507269423968e-10  1.2957284120150195e-10 -2.3262456935330235e-10 -3.2608526375753440e-10  2.5219070041046817e-10 1.6848187327642239e-10 -4.8442465772296507e-10  -4.7125320868623942e-10 4.0901036484212083e-10 -1.1091596582237271e-10  -6.0908888229711407e-11 6.3427796291383048e-10 -5.7853498479713617e-10  -6.9725599638163561e-11 -6.2224557930721039e-11 7.3024069568347062e-11  1.6703649017807625e-10 -4.7327117835471673e-11 -1.5309369844679674e-10  -3.2254525421906410e-10 -2.4303248621649359e-11 1.3772674013351543e-10  3.2032147266166364e-10 2.9533481366065402e-10 -2.1052871334261660e-11  7.9100370624923421e-11 -3.3038918450716152e-10 -2.9103136641774188e-10  2.0114414024721730e-10 4.8119321524678698e-10 -1.9484826484582944e-10  -2.9128968054067017e-12 1.7769351541173835e-12 1.2982088557933229e-10  -1.6350376917054448e-10 1.5830174850946898e-10 -1.6306020114149546e-10  8.1617488279853912e-11 -1.0412649291656133e-10 8.7877599850313288e-11  2.2547371435524635e-10 -3.4090855567176381e-10 -6.8244501691389295e-11  1.3294893255855151e-10 6.2700817863538962e-11 2.5513186408798184e-10  4.7529454265917792e-10 2.2022899301737085e-10 2.8794529273129463e-10  -2.4270602046954280e-10 2.3025653372942843e-11 -1.3889975071464207e-10  3.4605219483221351e-10 -4.3029281827992540e-11 -6.8785491831502759e-12  -6.6427581870971803e-11 -1.7813392794897332e-10 2.1133985036794583e-10  9.8033618971691810e-11 -1.1304604347639796e-10 -6.3188956992309562e-11  -9.7032399447250940e-12