<?xml version="1.0"?>
<VTKFile type="UnstructuredGrid"  version="0.1"  >
<UnstructuredGrid>
<Piece  NumberOfPoints="1657" NumberOfCells="7161">
<Points>
<DataArray  type="Float64"  NumberOfComponents="3"  format="ascii">0.5 0 0  -0.5 0 0  0 0.5 0  0 -0.5 0  0.5 0 1  -0.5 0 1  0 0.5 1  0 -0.5 1  -0.07821723251988573 -0.4938441702976052 0  -0.1545084971870769 -0.4755282581477057 0  -0.2269952498692269 -0.4455032620944624 0  -0.2938926261455928 -0.4045084971879415 0  -0.353553390592598 -0.3535533905939495 0  -0.4045084971870234 -0.2938926261468564 0  -0.4455032620939436 -0.226995249870245 0  -0.4755282581474761 -0.1545084971877837 0  -0.4938441702975501 -0.07821723252023399 0  -0.4938441702976052 0.07821723251988573 0  -0.4755282581477057 0.1545084971870769 0  -0.4455032620944624 0.2269952498692269 0  -0.4045084971879415 0.2938926261455928 0  -0.3535533905939495 0.353553390592598 0  -0.2938926261468564 0.4045084971870234 0  -0.226995249870245 0.4455032620939436 0  -0.1545084971877837 0.4755282581474761 0  -0.07821723252023399 0.4938441702975501 0  0.07821723251988573 0.4938441702976052 0  0.1545084971870769 0.4755282581477057 0  0.2269952498692269 0.4455032620944624 0  0.2938926261455928 0.4045084971879415 0  0.353553390592598 0.3535533905939495 0  0.4045084971870234 0.2938926261468564 0  0.4455032620939436 0.226995249870245 0  0.4755282581474761 0.1545084971877837 0  0.4938441702975501 0.07821723252023399 0  0.4938441702976052 -0.07821723251988573 0  0.4755282581477057 -0.1545084971870769 0  0.4455032620944624 -0.2269952498692269 0  0.4045084971879415 -0.2938926261455928 0  0.3535533905939495 -0.353553390592598 0  0.2938926261468564 -0.4045084971870234 0  0.226995249870245 -0.4455032620939436 0  0.1545084971877837 -0.4755282581474761 0  0.07821723252023399 -0.4938441702975501 0  -0.07821723251988573 -0.4938441702976052 1  -0.1545084971870769 -0.4755282581477057 1  -0.2269952498692269 -0.4455032620944624 1  -0.2938926261455928 -0.4045084971879415 1  -0.353553390592598 -0.3535533905939495 1  -0.4045084971870234 -0.2938926261468564 1  -0.4455032620939436 -0.226995249870245 1  -0.4755282581474761 -0.1545084971877837 1  -0.4938441702975501 -0.07821723252023399 1  -0.4938441702976052 0.07821723251988573 1  -0.4755282581477057 0.1545084971870769 1  -0.4455032620944624 0.2269952498692269 1  -0.4045084971879415 0.2938926261455928 1  -0.3535533905939495 0.353553390592598 1  -0.2938926261468564 0.4045084971870234 1  -0.226995249870245 0.4455032620939436 1  -0.1545084971877837 0.4755282581474761 1  -0.07821723252023399 0.4938441702975501 1  0.07821723251988573 0.4938441702976052 1  0.1545084971870769 0.4755282581477057 1  0.2269952498692269 0.4455032620944624 1  0.2938926261455928 0.4045084971879415 1  0.353553390592598 0.3535533905939495 1  0.4045084971870234 0.2938926261468564 1  0.4455032620939436 0.226995249870245 1  0.4755282581474761 0.1545084971877837 1  0.4938441702975501 0.07821723252023399 1  0.4938441702976052 -0.07821723251988573 1  0.4755282581477057 -0.1545084971870769 1  0.4455032620944624 -0.2269952498692269 1  0.4045084971879415 -0.2938926261455928 1  0.3535533905939495 -0.353553390592598 1  0.2938926261468564 -0.4045084971870234 1  0.226995249870245 -0.4455032620939436 1  0.1545084971877837 -0.4755282581474761 1  0.07821723252023399 -0.4938441702975501 1  0 -0.5 0.9230769230766027  0 -0.5 0.8461538461535256  0 -0.5 0.7692307692309824  0 -0.5 0.6923076923084392  0 -0.5 0.6153846153858957  0 -0.5 0.5384615384633524  0 -0.5 0.4615384615403821  0 -0.5 0.3846153846169851  0 -0.5 0.307692307693588  0 -0.5 0.230769230770191  0 -0.5 0.1538461538467939  0 -0.5 0.07692307692339706  0.5 0 0.9230769230766027  0.5 0 0.8461538461535256  0.5 0 0.7692307692309824  0.5 0 0.6923076923084392  0.5 0 0.6153846153858957  0.5 0 0.5384615384633524  0.5 0 0.4615384615403821  0.5 0 0.3846153846169851  0.5 0 0.307692307693588  0.5 0 0.230769230770191  0.5 0 0.1538461538467939  0.5 0 0.07692307692339706  0 0.5 0.9230769230766027  0 0.5 0.8461538461535256  0 0.5 0.7692307692309824  0 0.5 0.6923076923084392  0 0.5 0.6153846153858957  0 0.5 0.5384615384633524  0 0.5 0.4615384615403821  0 0.5 0.3846153846169851  0 0.5 0.307692307693588  0 0.5 0.230769230770191  0 0.5 0.1538461538467939  0 0.5 0.07692307692339706  -0.5 0 0.9230769230766027  -0.5 0 0.8461538461535256  -0.5 0 0.7692307692309824  -0.5 0 0.6923076923084392  -0.5 0 0.6153846153858957  -0.5 0 0.5384615384633524  -0.5 0 0.4615384615403821  -0.5 0 0.3846153846169851  -0.5 0 0.307692307693588  -0.5 0 0.230769230770191  -0.5 0 0.1538461538467939  -0.5 0 0.07692307692339706  -0.007594136642501654 -0.004045741957735315 1  0.2671352096201229 -0.02102399694998625 1  0.01764383341409913 0.2536132760584658 1  -0.02666396035831023 -0.2531221455965387 1  -0.2531221455965389 0.02666396035831023 1  -0.2215292578081779 -0.1892038603591107 1  0.1892038603591108 -0.2215292578081779 1  -0.1892038603591107 0.2215292578081779 1  0.2215292578081779 0.1892038603591109 1  0.1385185436720213 -0.09057822738852793 1  0.1444278228516107 0.06230098297709098 1  -0.1036020399044679 -0.1332668134328397 1  -0.1236898625509597 0.09154779714398348 1  0.3276138866914048 -0.1493452764976681 1  -0.1493452764976681 -0.3276138866914048 1  -0.3276138866914049 0.1493452764976682 1  0.1479353928765055 0.322183943053354 1  -0.09663024938828488 0.3427470693423371 1  0.350382753551459 0.09518682362295226 1  -0.3499441325621996 -0.09531085618119063 1  0.09531085618119059 -0.3499441325621996 1  0.3758029057029099 -0.02957633010838067 1  0.02957633010838064 0.3758029057029099 1  -0.02957633010838066 -0.37580290570291 1  -0.37580290570291 0.02957633010838064 1  0.008167023249524813 0.1287506671888682 1  -0.1411725171320288 -0.01707001611904115 1  0.01869295614714423 -0.1422154233579206 1  0.1114116068465904 0.1842585037493884 1  -0.2598550650020522 -0.294657539154362 1  -0.2946575391543621 0.2598550650020524 1  0.2601808590994745 0.2960858335428702 1  0.2946575391543622 -0.2598550650020522 1  0.3322366357565687 0.2103437406355584 1  -0.2107023737883974 0.3346675180840228 1  0.2103437406355586 -0.3322366357565688 1  -0.3322366357565688 -0.2103437406355586 1  -0.0812534232444079 0.2029318716322168 1  0.0963670891699373 -0.2227021471835499 1  -0.22270214718355 -0.09636708916993723 1  0.2190419849291031 -0.119559722020513 1  -0.1087485665851406 -0.2146437707845258 1  -0.203317076811764 0.1224557072025287 1  0.2273152369504595 0.09523047733096632 1  0.1600008575320791 -0.01229387630752224 1  0.4050885445567445 -0.09912204850336188 1  -0.4050885445567446 0.09912204850336188 1  0.09892063655748151 0.4043128383227373 1  -0.0991220485033619 -0.4050885445567445 1  -0.03455328827880966 0.415059611947992 1  0.03436480353493904 -0.4160877638365437 1  -0.4160877638365438 -0.03436480353493905 1  0.4161504239778664 0.03434708459804784 1  0.08365969031159125 0.002330153091588407 1  -0.2229390493464861 -0.3596307773124036 1  0.2233161458114676 0.3613387240591179 1  -0.3596307773124037 0.2229390493464862 1  0.3596307773124037 -0.2229390493464862 1  0.390515935037582 0.1636195434767474 1  -0.3904839655777235 -0.1636285837506716 1  0.1636285837506716 -0.3904839655777235 1  -0.1638876663325903 0.3923623890350764 1  0.04384282532259486 -0.07015857662322166 1  -0.08011765448211583 -0.04742160867833382 1  0.3226797123127975 -0.06724769324647022 1  -0.06791911746174686 -0.321011490405228 1  -0.3210114904052281 0.06791911746174685 1  0.06791597125071956 0.3133322485632025 1  0.01300029933573454 -0.3336582341509043 1  -0.3336582341509045 -0.01300029933573453 1  0.3312625026944596 0.01634298279090017 1  -0.01890231217342257 0.3207204227358019 1  0.1593044755135351 0.2337613396768917 1  -0.1672342929047866 -0.132773056500856 1  0.1327730565008564 -0.1672342929047865 1  -0.04057312736015202 0.07214036689862746 1  -0.1216583376241947 0.2551263578533178 1  -0.1373396390671733 0.1663016697769111 1  -0.03904193612438347 -0.1752447455726509 1  -0.1712751339250678 0.03771861162601834 1  0.1644461726501372 0.141775045830479 1  0.1511790319801663 -0.2932104380950028 1  0.2916869062741757 0.1510279462551886 1  -0.2932104380950028 -0.1511790319801662 1  -0.1893770942190298 -0.2599721157064441 1  -0.2635796411850183 0.1942911785362421 1  0.2605218924745163 -0.1907284886484514 1  0.05220398401757594 0.06955290408511863 1  -0.2805626972065101 0.328998778205796 1  0.3302393900494474 0.2819473926997965 1  -0.3318449512303389 -0.2832306080595193 1  0.2832306080595193 -0.3318449512303389 1  0.04832342905271358 0.1877808363511603 1  -0.065696898690541 0.1410851320361489 1  -0.02462254826085986 -0.09310549957314221 1  0.09208911815902721 0.2491550245754104 1  0.4381772089070252 -0.03451370530671609 1  0.03443218218138764 0.4378039052542489 1  -0.03451016151933785 -0.4381646768787607 1  -0.4381646768787607 0.03451016151933783 1  -0.05325027090288098 0.2628866993452785 1  -0.09689651082758409 0.02496399895247979 1  -0.2319704355840505 0.2759202109613136 1  0.2310272246689467 -0.2710730170749428 1  0.2726687263497516 0.2357350096492068 1  -0.2707894989087602 -0.2307430766710918 1  0.0336413547679618 -0.2027252641275629 1  -0.2018898444819838 -0.03359141884633879 1  -0.4063469422152409 0.1729714595109716 1  -0.1729714595109716 -0.4063469422152409 1  0.1703351844603517 0.4017734051354755 1  0.406346942215241 -0.1729714595109716 1  0.1062645597092786 -0.4273938075414044 1  -0.4273938075414044 -0.1062645597092787 1  0.4274699861971816 0.1062430180279853 1  -0.1055593867415405 0.4239082997540863 1  0.2114787942763156 -0.05534444370504381 1  0.2111840717711281 0.02625652447817698 1  -0.01987966435303436 0.1991166824559048 1  0.09743269749791104 0.1212317405257936 1  0.07902357234820491 -0.1415259639585728 1  -0.1527864160148222 -0.07674833379122445 1  -0.2932561548882097 -0.3421707315115853 1  -0.34197627736778 0.2930487078747591 1  0.2933466339041634 0.3427676239539843 1  0.3421707315115853 -0.2932561548882097 1  0.3839561780338137 0.2360638943783668 1  -0.3840708713079414 -0.23615
[...]
<PointData  Vectors="f_15"> 
<DataArray  type="Float64"  Name="f_15"  NumberOfComponents="3" format="ascii">5.0856080167182699e-08 1.7190822677021227e-08 1.2223868668887330e-07  -6.0897883385124209e-08 -2.5356703559743298e-08 1.3182626673133086e-07  -3.0936792622185405e-08 5.0331220282834876e-08 1.4121707201494506e-07  5.4551402865133949e-09 -6.5477831485945722e-08 1.5028377206363088e-07  -3.5023791386706962e-08 -5.0497257087465606e-09 1.2612670174281889e-07  4.3283182603719705e-08 1.2448053914758819e-08 1.1463771788725172e-07  -2.4794035304273527e-09 -3.2888263492858175e-08 1.2245170300327550e-07  1.8609164206188333e-09 3.1064368627759898e-08 1.2777131698916534e-07  -3.2956107781977765e-08 -5.0070959447039335e-08 1.5649360364044229e-07  9.0166704999772143e-09 -7.5354751417071941e-08 1.3783813436888944e-07  1.7967235381189864e-08 -9.8539702214824567e-09 1.5955563731636772e-07  -2.1947868631136270e-08 -2.9115617390042500e-08 9.6281683756954557e-08  -4.0681924961357661e-08 -1.7120172511323624e-08 1.0152502029509389e-07  8.0040157108560690e-09 9.7423180068526100e-09 1.5752715156646355e-07  -5.6437413334115060e-10 -2.6163725206500240e-09 1.1214416660716073e-07  -5.0759229964938062e-08 -6.0398239320679766e-09 1.4255542640629294e-07  -5.2050795982805908e-08 -2.1076008889255735e-08 1.2251241858610740e-07  -3.5594033754741404e-08 6.9732893436024646e-09 1.0630650580320872e-07  -7.5751292958954919e-08 6.7496501986060212e-08 8.8451782498713299e-08  -4.1235745142310529e-08 2.4378799410856287e-08 1.4498219442468383e-07  -8.2611403411439614e-08 3.8788148252667166e-08 8.0029989018964600e-08  -2.2349148206936434e-08 4.7421383221823679e-08 1.2541700286881318e-07  -8.5515711303663847e-10 1.2607494823656830e-08 1.2651011372125147e-07  -5.9424060765124993e-09 6.1854766417212449e-08 8.5099761769410763e-08  -2.7085332893613946e-09 3.4280489051285569e-08 1.7317166683343165e-07  -4.4033120334515545e-08 9.9695102866885063e-08 9.5223485863988222e-08  8.1839339519633813e-09 2.6758507302316925e-08 1.0950260982085941e-07  4.8566158974774393e-08 6.8748255089924300e-08 8.0657073338282757e-08  1.3518319584731457e-08 2.0088355419092965e-08 1.2935496478960487e-07  2.4312316872877528e-08 7.0245614229922245e-08 8.5129143347083261e-08  2.4211295156490878e-08 7.9377634054561201e-09 1.1977543951402046e-07  1.1798989154187201e-08 -5.0442398429486913e-09 1.3538256450734308e-07  3.2750667036906175e-08 -6.5700078596548019e-09 1.4203285592587389e-07  4.2772225065569439e-08 1.8038534597481322e-08 1.4495274241885925e-07  9.4049037789047559e-08 3.9773995929878187e-08 9.3201042252093253e-08  4.1062148825102187e-08 -3.7533428063919449e-08 1.0756674001854480e-07  5.4702531674187824e-08 5.0399950196174361e-09 9.0528916997358825e-08  1.7310985897292706e-08 2.2868730395406920e-11 1.2716437944311823e-07  4.2392041850863716e-08 -1.6814942771497338e-08 9.2723993074926594e-08  1.5692181260477740e-08 -1.8178814337218104e-08 1.1779436924279903e-07  -2.4860027089984159e-08 -1.2714321882092225e-08 1.1099204142674422e-07  -9.3355012164311304e-09 -9.3226799963303946e-08 1.4681521062007262e-07  4.3562103815583434e-08 -6.4314645036537070e-08 1.4596674282339161e-07  2.2634680048822649e-08 -3.5305829210647559e-08 1.3618464662547640e-07  1.0591303581161409e-08 1.7983211834386518e-08 1.4048862975271341e-07  1.0486567692674736e-08 3.6560938866847873e-08 1.3157488959589928e-07  3.8739047113851219e-08 6.2518263434691782e-08 1.0309090291574365e-07  -8.9446224695889964e-09 6.6653119377031057e-08 1.3263129151230489e-07  3.6787531705229864e-09 9.3119299880582170e-09 1.1015055255566936e-07  9.2983288020961852e-10 -2.2418766659297811e-08 1.2266273316727223e-07  3.1555253444034932e-08 3.6743090971754156e-09 1.2406466594843880e-07  5.3168904155630499e-08 1.8742410829719175e-08 6.8674745145649948e-08  2.8155171394882572e-08 1.7523212421861410e-08 7.5686761609196645e-08  6.1462189416206236e-09 -1.2006751785096066e-08 1.3929210303677315e-07  4.6534280779723039e-08 -2.4749941053862518e-08 1.2273877589497883e-07  3.0628408683576227e-08 -1.3677944213681915e-08 1.2935933579877855e-07  3.6626446720690370e-08 -6.5774125543932852e-09 1.1265245134468881e-07  2.0714137660091062e-08 -1.6436605684146232e-08 9.8553309009498302e-08  -1.3274054679520197e-08 5.4835587549822700e-10 1.3523617315746152e-07  3.4291156226930517e-09 -1.2774536534613930e-08 1.3433391886085323e-07  2.1527960352455230e-08 -4.4291793393171208e-08 9.0548192682477070e-08  1.7452679699736920e-08 -2.3905647116347551e-08 8.4744830821454221e-08  -8.6632716013464702e-10 -3.1695184241898779e-08 1.0885953764221634e-07  3.0309040977141981e-09 1.2423093401312475e-09 1.3621879710897660e-07  -4.1292676316552412e-08 -7.1975355768660799e-08 1.0350918478013600e-07  1.3708715090167300e-08 -6.1440615426998832e-08 1.4363582402872307e-07  -4.6944651987875553e-08 -4.0925297741461576e-08 7.2105779739300788e-08  -1.6081753732429825e-08 8.8657729397986754e-09 1.3810706357065247e-07  -4.7562025417399444e-08 -2.7206902568573541e-08 9.7838322096330221e-08  -6.2746283017689190e-08 -3.4015283909822161e-08 7.8153533162424139e-08  -1.9553733934480300e-08 -1.6596137425529953e-08 8.5811768632683220e-08  -1.5425703428024274e-08 -3.9135679569036981e-09 1.2290778066540351e-07  3.3777225133494135e-11 -9.9037496060988259e-09 1.1198538769489614e-07  -1.2330311687873410e-08 2.6116759660559075e-08 1.2395179890284898e-07  -7.0210727416491058e-08 7.8232426388864517e-09 1.3262609160976734e-07  -2.6614370640797128e-08 1.7825035940663401e-08 1.4571052711016863e-07  -9.6423012018453221e-09 1.8816268208818530e-08 1.4406210622817731e-07  -1.9252360088239014e-08 1.9115437932418076e-09 1.3435130075436642e-07  -2.3975275153585201e-08 4.9810416671611512e-08 7.8463341233685113e-08  -1.4429262510357376e-08 1.9050088002571609e-08 8.4844430708684237e-08  4.7703503072380539e-08 1.6112354483527609e-08 9.5900876407557956e-08  -2.8758356188764081e-09 -2.3152088284314148e-09 9.2323139636402426e-09  4.4380842593628211e-09 1.2923203428250582e-08 -1.6973070491238788e-08  -5.6129063728006127e-09 -6.0378925414875394e-09 -4.1745245304344612e-08  -5.9696197013584847e-09 -1.0479788776364737e-08 -4.4621962100575615e-08  -4.6751551851531891e-10 -1.0664111463828913e-08 -2.5695902459147023e-08  -6.0774970696532739e-10 -3.1598092375948921e-09 -2.5427842159398432e-08  1.2281835639833758e-08 1.1729022408014081e-08 -3.9304894743502604e-08  9.2953840684886996e-10 1.0769731049537316e-08 -3.9300380601199419e-08  7.1165462599635442e-11 -4.6846532761179918e-09 -3.8075229634305770e-08  -3.4055584445705113e-09 -1.3494094859585013e-08 -6.9576164656785140e-09  -6.3099230235017548e-09 -8.4019463339198008e-09 1.0048686005113116e-07  -2.1916014125376815e-08 3.2073776813456285e-08 8.3943331307178876e-08  4.7971614499760135e-09 4.0549233806752264e-09 6.5572421681934263e-09  8.7449849443299677e-11 7.7415642015441353e-09 -1.9826092686498718e-08  1.2174799021650534e-09 8.8997614152135258e-10 -3.6279881592210824e-08  -7.6713165533937207e-09 1.1531707915811453e-09 -3.6858101816038272e-08  -8.7499852682998243e-09 -4.4358716481982745e-09 -4.5187046484649741e-08  1.2859888181277784e-09 -4.6515711723819339e-09 -4.6979077615742979e-08  9.8786258852691367e-11 -1.7361779101956601e-08 -4.8268937673223001e-08  1.0123458871512500e-08 5.4104787053772171e-10 -4.0980207490503257e-08  2.4565606876508327e-09 3.1637581870238602e-09 -4.2127792893839100e-08  6.6720889070041869e-09 -2.4290259056692728e-09 1.1097102156349991e-08  -9.4768309417112244e-09 -1.8508010098114615e-08 5.7186998460240143e-08  -4.5890777406136643e-08 -2.5345980291559581e-08 8.5226369898996208e-08  1.5151003321833833e-08 2.1359148996957869e-08 2.3832016176755722e-08  -1.0739941022384796e-08 -2.0883112029718692e-08 -1.1877188597236031e-08  3.1619744368779523e-09 1.1774376837030624e-08 -3.2267672215821073e-08  -3.9043720429681236e-09 -1.2500002701594265e-08 -3.8381084807736420e-08  -5.0646750357474845e-09 -5.8184771750914162e-10 -3.5383756809265729e-08  -1.5557799788228956e-09 4.6398227473240752e-10 -4.0959748582931459e-08  2.5397465470505471e-09 -3.0301476636479135e-09 -4.3592678899451140e-08  3.2595486009953340e-09 -5.5349098342888142e-09 -3.6880067160849044e-08  9.9581266786057771e-09 3.7702266530959074e-09 -2.9573318890513244e-08  -6.9044758490310121e-09 -1.4340111822799921e-08 -2.6482828629153367e-09  9.9734021773877641e-09 7.3900975988234439e-09 7.8194686144637313e-08  1.4814143226875868e-08 -2.8743233979652157e-08 9.5143656211006102e-08  1.0339921496357064e-08 2.2204991912049352e-10 2.4752463400348873e-08  3.2258836367911213e-09 -2.3067346750212120e-09 -2.0939176625502537e-08  1.0731300107307328e-08 -3.2283219150545784e-09 -3.1414990826571792e-08  -5.4104666532277041e-11 7.5700339359916250e-10 -4.2028730830125328e-08  1.0707517846361136e-09 -2.3420965118827632e-08 -3.2291957520393715e-08  3.4640864073652921e-09 7.3856709666068383e-10 -3.0236558900053020e-08  1.0519533539168520e-08 -6.9603204558953770e-09 -4.0762688607401403e-08  3.3356801813253205e-09 2.5946823088985157e-09 -4.0766170900143181e-08  1.7182049909924964e-09 8.3824175840502233e-09 -2.1027189219305007e-08  -8.1684071149063834e-09 9.5288282922265259e-09 1.8254541752669946e-08  -1.0347372325749985e-08 -4.3231065663054729e-09 7.2539225726001634e-08  6.5895548980379052e-10 9.8805699628184659e-09 8.0535224059921140e-08  -9.3309758271534794e-11 3.3667566147086198e-09 1.2332685550088987e-07  2.8594393475928490e-09 4.7741829095203135e-09 8.7418497729164632e-08  -3.1918299014924461e-09 -1.0086153314531862e-08 8.4450776426642000e-08  -1.5940185082717845e-08 -9.2520576730859707e-09 1.0428267549912759e-07  -2.4164427698380149e-10 -2.7525625713153220e-08 1.0690358771830644e-07  -3.2182378691474842e-09 -2.4522363508962356e-09 9.3756401111965482e-08  -9.6049316061816303e-09 6.6856074370315964e-09 9.3761413331910672e-08  1.1327200453197839e-08 1.0350914188839597e-08 1.1736755271150336e-07  -7.5336409029877114e-09 -6.7222294402936957e-09 1.0015244927140190e-07  6.4137328874273821e-09 1.5466608097075997e-08 1.2306314835426587e-07  1.2679088581508548e-08 3.3156524669265433e-09 1.2035837292017517e-07  -3.6320628949817517e-09 3.1276437856818702e-09 1.0540937521244927e-07  -6.1380544992444103e-09 -6.3541663527744277e-09 9.2760760876707061e-08  -6.8060818903481970e-10 2.6365390126412008e-08 8.7358805156831871e-08  6.0089596773588517e-10 5.0014989223330525e-09 9.6288659093118928e-08  6.4689530653445277e-09 -1.8037445424794217e-08 1.0370867618654043e-07  -6.2009653636260659e-10 3.9685795323277807e-09 9.1230986143553761e-08  1.2155651572473166e-08 5.4189263953639067e-09 8.9864484993499832e-08  -1.0662458131419564e-08 -6.2454728148536790e-09 1.1157739402681156e-07  4.4113669366372720e-09 6.0481030325576562e-10 9.5618774876328923e-08  -2.2241590924194615e-08 -9.5686640402873023e-09 1.2369243904921783e-07  -1.3675130147522870e-08 -5.7763485691924457e-09 9.3815611691306604e-08  -2.4747831489871357e-09 9.0760827753425115e-09 1.2432801399801609e-07  1.1022064377826573e-08 -1.6946296953363170e-08 9.2937881269917716e-08  1.0853494615886984e-09 1.5735102436079730e-08 1.0858008258919985e-07  1.2668572219639513e-08 5.2356665191427098e-09 1.4503251530482229e-07  -2.5088141774707614e-08 -3.0227105720841112e-10 1.3315369108360289e-07  3.0557112859936853e-09 -3.2892977353371718e-09 1.1682738778833217e-07  8.9658036372480316e-09 6.1150981207052170e-09 1.1042257201856039e-07  -2.1005977396596973e-09 6.9169771804487485e-09 1.2093669178821584e-07  2.3210533638639253e-08 1.3559919257099106e-08 9.2955568682581312e-08  -8.9914460697344664e-09 -1.2827377496391046e-09 1.0254796443320120e-07  2.1871049977470760e-08 -3.0192093296837664e-09 1.0003368046050672e-07  1.1069739430482248e-09 -1.4169219466336616e-08 1.1469159391332556e-07  -1.9094373417517662e-08 1.6644139284319636e-08 1.2263327245941655e-07  8.3623814950495820e-09 -3.3050649708313163e-09 1.2000623179228914e-07  1.8937022651491874e-08 1.5251438965529560e-08 1.0596878704014498e-07  -5.7742768090368885e-09 -2.3715273151344335e-09 7.4905718098340292e-08  -1.9328963423256172e-08 -2.1079590282977060e-09 7.8261875319474860e-08  7.3158778904897605e-09 -1.3191541029837866e-08 1.2826354284286046e-07  4.4296615637793238e-09 -2.4832941069406257e-09 1.0547852915647631e-07  -7.0146589133097909e-09 2.2344635889598403e-08 1.1869503385364614e-07  -4.0776394086550027e-09 6.9211227690324017e-09 1.0271808210109521e-07  -2.1106820426950566e-09 -1.6054270567684326e-08 1.1016851552881627e-07  4.1593913000550828e-09 -8.3478851332591568e-09 9.9629719195254659e-08  1.0617435319759696e-09 -5.6349077861622040e-09 1.0627449130330913e-07  -5.1143795048481590e-09 3.1715713920097381e-09 1.1151411616024349e-07  1.8805089752954493e-10 5.2417262040291127e-09 1.0864182138565283e-07  -1.5492046848871951e-08 7.1508249637008095e-09 8.1064288122300814e-08  1.7526300527157106e-08 -1.1650423796765811e-08 8.2036061062696906e-08  -2.8262698980287401e-09 -2.2077922651163387e-08 9.8162101043363996e-08  1.2034650793590541e-08 1.3325385098426397e-08 8.9710213872275276e-08  1.0369424619753066e-09 1.5654094376894181e-08 1.1058865514751467e-07  1.6350370962728639e-10 1.4130914123228042e-08 1.1446308216644547e-07  2.0782083770105426e-09 -2.5868432583492459e-08 1.0574475514302115e-07  2.1445398423117641e-09 7.4456968057105715e-09 9.1057993097807008e-08  -1.6232773951704787e-08 1.2261182551738012e-08 1.0749991178233220e-07  1.9279637684464542e-08 4.2270189544104408e-09 8.4553760784436068e-08  -7.0452551737698751e-09 1.5725300077367676e-10 8.4346084469495387e-08  -2.0172360300762520e-10 -6.9394232403971761e-09 8.4256814720243270e-08  -3.2426721859684151e-09 1.0704890685603628e-08 9.2398712179189707e-08  3.2206620241641810e-10 -1.2652401030344694e-08 9.4899177644026508e-08  5.2671205221812332e-09 -3.2450555114002865e-09 9.4318545538234040e-08  -3.3949729971317058e-09 5.2422567775279784e-09 7.5794950448805412e-08  4.6110553357629645e-09 7.9713351414827570e-09 7.7646244537330548e-08  1.1016005115806991e-08 -9.0188343179497724e-10 1.0182412004644002e-07  -9.2524181555545302e-09 -9.1185588684457402e-09 9.6693180745475519e-08  1.4020899709661509e-08 -9.2633974197531236e-09 1.1439737661558506e-07  -7.4239463183682712e-09 -1.2581124293580185e-09 7.5436900250140685e-08  3.3863263451409743e-09 -7.0134299397903597e-09 7.2906066272205240e-08  1.7343323141565881e-09 2.4239461596227295e-09 9.0576717704100714e-08  4.9885937748811052e-09 5.8520600939269535e-09 8.5439103910505604e-08  -2.3416427528600426e-09 -6.7000991884632117e-09 9.6252329975092665e-08  -9.7689376736806573e-10 -7.9054487421631141e-09 1.2270470260309700e-07  -2.9350487727113866e-09 -3.5512517277173742e-09 1.0710181338014956e-07  4.2306312398792581e-09 9.0102626524211604e-09 8.2703615731913828e-08  -2.1818428109889295e-09 1.0034625456136274e-09 1.0709902729635388e-07  -8.4479799686223254e-09 -1.6301576554742341e-09 1.0227954465014355e-07  3.3511860895216580e-09 -3.7862239621409627e-09 1.2275853431444658e-07  7.3495135778449658e-09 9.4954880593429480e-09 8.1087482355422322e-08  4.5079749143784761e-09 -4.1910831103048657e-09 6.6410763768106615e-08  -4.6040042293238289e-09 1.0770067299552536e-08 8.0892908685282549e-08  4.6909828235964047e-09 -5.3290118657416124e-09 7.0159619481665890e-08  -3.8412790127512388e-09 -3.0316880406551120e-09 7.6536090940466584e-08  -1.5725626432605689e-09 1.9280150617444243e-09 1.0022563879239036e-07  6.2819694618073942e-09 2.0020171025929986e-08 1.0065961975404469e-07  2.2963107076543604e-08 -1.7705995434694660e-08 1.0532819190040236e-07  -4.9194784399865431e-09 9.4954972620479176e-09 9.5768331528943737e-08  -8.6523725126192240e-10 1.6760100209855951e-08 8.9029359824571408e-08  -8.3505930631819154e-09 -1.2793306972825090e-08 9.1575492753403655e-08  -8.5539949961248326e-09 7.7345350184374904e-09 1.0460446592773078e-07  -8.6701512688057083e-09 8.2360465668926354e-09 9.5442141288049248e-08  3.6526249206983362e-09 5.3727569530753473e-09 1.2897556103070343e-07  9.0829885882708757e-09 -1.2039748540990986e-08 9.5383342492580031e-08  -1.4321511463552106e-09 1.2721616262663869e-08 9.8243960278649385e-08  -1.3091345195350499e-08 1.8423941367745725e-09 1.1689451502939299e-07  1.7682549699753739e-08 -1.1551937931910398e-08 1.2433864603427831e-07  -8.8503044959455123e-09 1.0003301506251325e-08 1.3680808531690031e-07  4.4575301126558560e-09 -2.5664858349775754e-08 1.0108720003559178e-07  -9.1113633682398870e-10 -3.5732099172842994e-09 1.1022590181224261e-07  1.3909953963220515e-08 -3.3141405468652966e-09 1.3384723658996327e-07  2.3677387689480244e-09 4.6676060994925464e-09 9.5990625506018428e-08  -1.1092587043544600e-08 -1.6937823238107151e-08 7.7015010264005309e-08  2.1033868782797631e-08 -6.2147311112075479e-09 8.0004235210557791e-08  8.5535741898057202e-09 6.0590047874504787e-09 9.0169335799820908e-08  1.1925624661833604e-08 -3.1715112203035174e-09 1.1011444023742476e-07  -1.4827075014976022e-08 3.7710747241035633e-10 1.0732409773182122e-07  1.1907889026861004e-08 1.4439123001811101e-09 1.1711665596771118e-07  7.5395511294196207e-09 1.8464517684655724e-08 1.1906343069326013e-07  -3.0469574161107544e-09 -1.6158118765860919e-09 1.0741064412596543e-07  -6.2036926860004495e-10 -3.8369734600978744e-10 8.1038580310388090e-08  1.6551268385208462e-08 -1.3851204880649908e-08 1.0239501433970502e-07  -9.0810793089193062e-10 -1.1886682738358612e-08 1.0389471742715157e-07  1.1394250584474926e-09 1.7918098589649989e-08 9.7605067875679864e-08  3.5664753502043819e-09 4.5983637143024236e-09 1.0604566057462176e-07  5.4367635983305155e-09 1.5072692047055688e-08 1.0735325160828392e-07  1.7267834138838427e-09 1.6898412815252303e-10 8.8934116711345156e-08  -3.4106862846270659e-09 2.6276225819173114e-10 6.5727811399521427e-08  -1.7588956296321684e-08 -3.4279621989823223e-09 8.7552965381082130e-08  1.7841128436200153e-09 -1.0224813254558319e-08 1.1805280345119867e-07  -1.9262317694162207e-08 -1.7601381058695203e-08 1.4026759585191054e-07  -5.2300324545343650e-09 1.6775257562359552e-08 9.2578070560458010e-08  -7.2140818625823714e-09 -7.0959739751249529e-09 1.1308578329074511e-07  -7.0007338089970099e-09 -8.6849519498227568e-09 9.7338572565090809e-08  -6.9448783674727565e-09 1.6453489283329324e-08 8.1850708981920888e-08  -1.6263265274723500e-08 -1.1855583279010001e-08 7.6213377811517928e-08  -8.5782445050836412e-09 1.5790120692168742e-08 9.9924521440197397e-08  -1.9072222851687180e-08 -4.9607599687919174e-09 7.9296649458292850e-08  2.7703491699323584e-09 -6.6943838791161092e-09 1.0291545364128574e-07  -1.7465890646343734e-08 9.5947459139915228e-09 7.9912578461428080e-08  5.9318972103802664e-09 5.9584839552815142e-09 9.6340076079697104e-08  -1.0085726019816234e-08 5.5638823713665938e-09 1.1749808347447124e-07  1.8937480569063934e-09 -3.4335139162107160e-09 9.1458118027469955e-08  -1.2670968155338167e-08 2.0681618335838387e-09 1.0435073395407240e-07  2.3296063852165890e-08 -3.8929338555093059e-09 8.6335487408014333e-08  -1.2876851312773979e-08 -3.5743454097842740e-09 1.1879925564517902e-07  1.1275166736109404e-08 8.8970275969259080e-09 1.1455541143203456e-07  -1.0478458246913775e-08 -9.2469136786792748e-09 7.9689392300783490e-08  9.8668317850529829e-09 -1.3392259479512338e-09 6.9831633286330070e-08  5.5661150664033144e-09 2.0196145886940634e-08 9.6461999951569601e-08  -1.2962218602314401e-08 1.7739578071248186e-08 1.0241547272209672e-07  -6.3347000868143701e-09 9.4265000997209160e-09 1.1392308678595541e-07  8.3843858344838277e-09 -1.6046067064613922e-08 8.0129189958290579e-08  3.5007557083817468e-09 1.0321006432572457e-08 9.6397110691229603e-08  7.7747084804516342e-09 -3.8863909877941284e-10 1.0632383372490427e-07  3.7108565925406084e-09 8.8717088602877981e-09 9.6441549922685287e-08  -2.3981303409366966e-09 -7.9511180275558983e-09 1.1171810619462344e-07  2.4944967656938742e-09 -1.0222224170171856e-08 6.7922004026202679e-08  1.0899567485578736e-08 -1.3947843755152966e-08 9.2355791196028060e-08  -9.9926145180734969e-10 -1.1013732324406407e-08 8.9552712303714432e-08  -4.6982500465145417e-09 1.1196034728438176e-08 1.13839