<?xml version="1.0"?>
<VTKFile type="UnstructuredGrid"  version="0.1"  >
<UnstructuredGrid>
<Piece  NumberOfPoints="1657" NumberOfCells="7161">
<Points>
<DataArray  type="Float64"  NumberOfComponents="3"  format="ascii">0.5 0 0  -0.5 0 0  0 0.5 0  0 -0.5 0  0.5 0 1  -0.5 0 1  0 0.5 1  0 -0.5 1  -0.07821723251988573 -0.4938441702976052 0  -0.1545084971870769 -0.4755282581477057 0  -0.2269952498692269 -0.4455032620944624 0  -0.2938926261455928 -0.4045084971879415 0  -0.353553390592598 -0.3535533905939495 0  -0.4045084971870234 -0.2938926261468564 0  -0.4455032620939436 -0.226995249870245 0  -0.4755282581474761 -0.1545084971877837 0  -0.4938441702975501 -0.07821723252023399 0  -0.4938441702976052 0.07821723251988573 0  -0.4755282581477057 0.1545084971870769 0  -0.4455032620944624 0.2269952498692269 0  -0.4045084971879415 0.2938926261455928 0  -0.3535533905939495 0.353553390592598 0  -0.2938926261468564 0.4045084971870234 0  -0.226995249870245 0.4455032620939436 0  -0.1545084971877837 0.4755282581474761 0  -0.07821723252023399 0.4938441702975501 0  0.07821723251988573 0.4938441702976052 0  0.1545084971870769 0.4755282581477057 0  0.2269952498692269 0.4455032620944624 0  0.2938926261455928 0.4045084971879415 0  0.353553390592598 0.3535533905939495 0  0.4045084971870234 0.2938926261468564 0  0.4455032620939436 0.226995249870245 0  0.4755282581474761 0.1545084971877837 0  0.4938441702975501 0.07821723252023399 0  0.4938441702976052 -0.07821723251988573 0  0.4755282581477057 -0.1545084971870769 0  0.4455032620944624 -0.2269952498692269 0  0.4045084971879415 -0.2938926261455928 0  0.3535533905939495 -0.353553390592598 0  0.2938926261468564 -0.4045084971870234 0  0.226995249870245 -0.4455032620939436 0  0.1545084971877837 -0.4755282581474761 0  0.07821723252023399 -0.4938441702975501 0  -0.07821723251988573 -0.4938441702976052 1  -0.1545084971870769 -0.4755282581477057 1  -0.2269952498692269 -0.4455032620944624 1  -0.2938926261455928 -0.4045084971879415 1  -0.353553390592598 -0.3535533905939495 1  -0.4045084971870234 -0.2938926261468564 1  -0.4455032620939436 -0.226995249870245 1  -0.4755282581474761 -0.1545084971877837 1  -0.4938441702975501 -0.07821723252023399 1  -0.4938441702976052 0.07821723251988573 1  -0.4755282581477057 0.1545084971870769 1  -0.4455032620944624 0.2269952498692269 1  -0.4045084971879415 0.2938926261455928 1  -0.3535533905939495 0.353553390592598 1  -0.2938926261468564 0.4045084971870234 1  -0.226995249870245 0.4455032620939436 1  -0.1545084971877837 0.4755282581474761 1  -0.07821723252023399 0.4938441702975501 1  0.07821723251988573 0.4938441702976052 1  0.1545084971870769 0.4755282581477057 1  0.2269952498692269 0.4455032620944624 1  0.2938926261455928 0.4045084971879415 1  0.353553390592598 0.3535533905939495 1  0.4045084971870234 0.2938926261468564 1  0.4455032620939436 0.226995249870245 1  0.4755282581474761 0.1545084971877837 1  0.4938441702975501 0.07821723252023399 1  0.4938441702976052 -0.07821723251988573 1  0.4755282581477057 -0.1545084971870769 1  0.4455032620944624 -0.2269952498692269 1  0.4045084971879415 -0.2938926261455928 1  0.3535533905939495 -0.353553390592598 1  0.2938926261468564 -0.4045084971870234 1  0.226995249870245 -0.4455032620939436 1  0.1545084971877837 -0.4755282581474761 1  0.07821723252023399 -0.4938441702975501 1  0 -0.5 0.9230769230766027  0 -0.5 0.8461538461535256  0 -0.5 0.7692307692309824  0 -0.5 0.6923076923084392  0 -0.5 0.6153846153858957  0 -0.5 0.5384615384633524  0 -0.5 0.4615384615403821  0 -0.5 0.3846153846169851  0 -0.5 0.307692307693588  0 -0.5 0.230769230770191  0 -0.5 0.1538461538467939  0 -0.5 0.07692307692339706  0.5 0 0.9230769230766027  0.5 0 0.8461538461535256  0.5 0 0.7692307692309824  0.5 0 0.6923076923084392  0.5 0 0.6153846153858957  0.5 0 0.5384615384633524  0.5 0 0.4615384615403821  0.5 0 0.3846153846169851  0.5 0 0.307692307693588  0.5 0 0.230769230770191  0.5 0 0.1538461538467939  0.5 0 0.07692307692339706  0 0.5 0.9230769230766027  0 0.5 0.8461538461535256  0 0.5 0.7692307692309824  0 0.5 0.6923076923084392  0 0.5 0.6153846153858957  0 0.5 0.5384615384633524  0 0.5 0.4615384615403821  0 0.5 0.3846153846169851  0 0.5 0.307692307693588  0 0.5 0.230769230770191  0 0.5 0.1538461538467939  0 0.5 0.07692307692339706  -0.5 0 0.9230769230766027  -0.5 0 0.8461538461535256  -0.5 0 0.7692307692309824  -0.5 0 0.6923076923084392  -0.5 0 0.6153846153858957  -0.5 0 0.5384615384633524  -0.5 0 0.4615384615403821  -0.5 0 0.3846153846169851  -0.5 0 0.307692307693588  -0.5 0 0.230769230770191  -0.5 0 0.1538461538467939  -0.5 0 0.07692307692339706  -0.007594136642501654 -0.004045741957735315 1  0.2671352096201229 -0.02102399694998625 1  0.01764383341409913 0.2536132760584658 1  -0.02666396035831023 -0.2531221455965387 1  -0.2531221455965389 0.02666396035831023 1  -0.2215292578081779 -0.1892038603591107 1  0.1892038603591108 -0.2215292578081779 1  -0.1892038603591107 0.2215292578081779 1  0.2215292578081779 0.1892038603591109 1  0.1385185436720213 -0.09057822738852793 1  0.1444278228516107 0.06230098297709098 1  -0.1036020399044679 -0.1332668134328397 1  -0.1236898625509597 0.09154779714398348 1  0.3276138866914048 -0.1493452764976681 1  -0.1493452764976681 -0.3276138866914048 1  -0.3276138866914049 0.1493452764976682 1  0.1479353928765055 0.322183943053354 1  -0.09663024938828488 0.3427470693423371 1  0.350382753551459 0.09518682362295226 1  -0.3499441325621996 -0.09531085618119063 1  0.09531085618119059 -0.3499441325621996 1  0.3758029057029099 -0.02957633010838067 1  0.02957633010838064 0.3758029057029099 1  -0.02957633010838066 -0.37580290570291 1  -0.37580290570291 0.02957633010838064 1  0.008167023249524813 0.1287506671888682 1  -0.1411725171320288 -0.01707001611904115 1  0.01869295614714423 -0.1422154233579206 1  0.1114116068465904 0.1842585037493884 1  -0.2598550650020522 -0.294657539154362 1  -0.2946575391543621 0.2598550650020524 1  0.2601808590994745 0.2960858335428702 1  0.2946575391543622 -0.2598550650020522 1  0.3322366357565687 0.2103437406355584 1  -0.2107023737883974 0.3346675180840228 1  0.2103437406355586 -0.3322366357565688 1  -0.3322366357565688 -0.2103437406355586 1  -0.0812534232444079 0.2029318716322168 1  0.0963670891699373 -0.2227021471835499 1  -0.22270214718355 -0.09636708916993723 1  0.2190419849291031 -0.119559722020513 1  -0.1087485665851406 -0.2146437707845258 1  -0.203317076811764 0.1224557072025287 1  0.2273152369504595 0.09523047733096632 1  0.1600008575320791 -0.01229387630752224 1  0.4050885445567445 -0.09912204850336188 1  -0.4050885445567446 0.09912204850336188 1  0.09892063655748151 0.4043128383227373 1  -0.0991220485033619 -0.4050885445567445 1  -0.03455328827880966 0.415059611947992 1  0.03436480353493904 -0.4160877638365437 1  -0.4160877638365438 -0.03436480353493905 1  0.4161504239778664 0.03434708459804784 1  0.08365969031159125 0.002330153091588407 1  -0.2229390493464861 -0.3596307773124036 1  0.2233161458114676 0.3613387240591179 1  -0.3596307773124037 0.2229390493464862 1  0.3596307773124037 -0.2229390493464862 1  0.390515935037582 0.1636195434767474 1  -0.3904839655777235 -0.1636285837506716 1  0.1636285837506716 -0.3904839655777235 1  -0.1638876663325903 0.3923623890350764 1  0.04384282532259486 -0.07015857662322166 1  -0.08011765448211583 -0.04742160867833382 1  0.3226797123127975 -0.06724769324647022 1  -0.06791911746174686 -0.321011490405228 1  -0.3210114904052281 0.06791911746174685 1  0.06791597125071956 0.3133322485632025 1  0.01300029933573454 -0.3336582341509043 1  -0.3336582341509045 -0.01300029933573453 1  0.3312625026944596 0.01634298279090017 1  -0.01890231217342257 0.3207204227358019 1  0.1593044755135351 0.2337613396768917 1  -0.1672342929047866 -0.132773056500856 1  0.1327730565008564 -0.1672342929047865 1  -0.04057312736015202 0.07214036689862746 1  -0.1216583376241947 0.2551263578533178 1  -0.1373396390671733 0.1663016697769111 1  -0.03904193612438347 -0.1752447455726509 1  -0.1712751339250678 0.03771861162601834 1  0.1644461726501372 0.141775045830479 1  0.1511790319801663 -0.2932104380950028 1  0.2916869062741757 0.1510279462551886 1  -0.2932104380950028 -0.1511790319801662 1  -0.1893770942190298 -0.2599721157064441 1  -0.2635796411850183 0.1942911785362421 1  0.2605218924745163 -0.1907284886484514 1  0.05220398401757594 0.06955290408511863 1  -0.2805626972065101 0.328998778205796 1  0.3302393900494474 0.2819473926997965 1  -0.3318449512303389 -0.2832306080595193 1  0.2832306080595193 -0.3318449512303389 1  0.04832342905271358 0.1877808363511603 1  -0.065696898690541 0.1410851320361489 1  -0.02462254826085986 -0.09310549957314221 1  0.09208911815902721 0.2491550245754104 1  0.4381772089070252 -0.03451370530671609 1  0.03443218218138764 0.4378039052542489 1  -0.03451016151933785 -0.4381646768787607 1  -0.4381646768787607 0.03451016151933783 1  -0.05325027090288098 0.2628866993452785 1  -0.09689651082758409 0.02496399895247979 1  -0.2319704355840505 0.2759202109613136 1  0.2310272246689467 -0.2710730170749428 1  0.2726687263497516 0.2357350096492068 1  -0.2707894989087602 -0.2307430766710918 1  0.0336413547679618 -0.2027252641275629 1  -0.2018898444819838 -0.03359141884633879 1  -0.4063469422152409 0.1729714595109716 1  -0.1729714595109716 -0.4063469422152409 1  0.1703351844603517 0.4017734051354755 1  0.406346942215241 -0.1729714595109716 1  0.1062645597092786 -0.4273938075414044 1  -0.4273938075414044 -0.1062645597092787 1  0.4274699861971816 0.1062430180279853 1  -0.1055593867415405 0.4239082997540863 1  0.2114787942763156 -0.05534444370504381 1  0.2111840717711281 0.02625652447817698 1  -0.01987966435303436 0.1991166824559048 1  0.09743269749791104 0.1212317405257936 1  0.07902357234820491 -0.1415259639585728 1  -0.1527864160148222 -0.07674833379122445 1  -0.2932561548882097 -0.3421707315115853 1  -0.34197627736778 0.2930487078747591 1  0.2933466339041634 0.3427676239539843 1  0.3421707315115853 -0.2932561548882097 1  0.3839561780338137 0.2360638943783668 1  -0.3840708713079414 -0.23615
[...]
<PointData  Vectors="f_15"> 
<DataArray  type="Float64"  Name="f_15"  NumberOfComponents="3" format="ascii">-1.8824585443225521e-09 -4.5057407641232413e-09 -2.6777519235850612e-09  4.9113642374209631e-09 3.2901762620924938e-09 -2.8688279655222432e-09  7.5099022474986110e-09 -1.0610837406746577e-08 -3.5673701855907122e-09  -9.4001217922125716e-10 7.6164578724376328e-09 2.5063668529655390e-09  -5.7027221887330208e-08 -1.0241332429316311e-08 -2.5034847295814964e-08  4.4823802678401196e-08 8.3871004259322212e-09 -2.0731335035003223e-08  9.3355942144382504e-09 -5.1096174156063371e-08 -2.4830342020809099e-08  -9.5662489731254042e-09 5.2531944079469814e-08 -2.3036529135868414e-08  7.2414057464248450e-10 1.3286934316365819e-09 1.7260882338324586e-09  1.0339416628292983e-09 -8.8037470687721278e-10 -2.5645811508651550e-09  1.9828042342217580e-09 1.5988033142593628e-09 -4.1560889299202398e-09  6.3699286925869982e-09 8.4316098090171789e-09 5.0959535901853894e-09  5.1285860008807120e-09 5.0218321310348840e-09 4.0333065904984482e-09  -1.4548022024915588e-09 6.5374814587190074e-10 -7.1060424602098644e-10  3.1136458646890363e-09 -6.0233520096918799e-11 5.3426885043950127e-09  3.8939826620872233e-09 -9.7635347512936889e-10 4.7424263963632506e-10  2.2432060209979010e-09 2.9302444232148208e-09 2.2003091608775065e-09  9.8369823269823272e-09 -5.3965590195980986e-09 2.7643796357378758e-09  1.6832567801707262e-08 -1.9275678710355846e-08 1.1646737797884068e-08  8.0421121240198984e-09 -6.9429964854703205e-09 -7.5635165138978491e-09  2.7684938229249000e-08 -1.1408068070294032e-08 1.5354575204067208e-08  3.7814121065579664e-09 -6.9837348392108646e-09 -2.1828022702941144e-11  -3.3106603586486092e-09 7.8153471028139136e-09 5.1105995530223535e-10  -4.8208961860140395e-11 -9.5525006543209831e-09 1.3539906271941634e-08  -5.3621638885821923e-09 2.2198514433527137e-09 -8.1340472143188972e-09  9.0995928123882900e-09 -2.1675596519613733e-08 1.4692929053624610e-08  -1.8773768890274263e-10 -1.0506372577633504e-08 5.2394246559607962e-09  -1.4957417211777801e-08 -2.5373732851544473e-08 2.9844342560378021e-08  3.3849372996934271e-09 6.8895885150774441e-09 -6.2888231191896356e-09  -3.3542538016729344e-09 -9.3245786898292557e-09 7.1133304930527359e-09  1.1910441081853287e-09 1.0551921142000685e-09 6.7528733082634107e-10  3.3855659675521939e-09 3.5954921802074984e-09 3.0789472984406495e-09  2.0754753100735739e-09 3.3938904894488120e-09 6.9506191827340187e-10  3.2488105200593443e-09 3.8971982790217381e-09 -5.6573336582159883e-09  -1.4756536139093817e-08 -6.1176393055753749e-09 9.3961059917015960e-09  -5.5647002165663466e-09 7.3302690003240115e-09 -1.7925545619107283e-09  -1.8038802872601891e-08 -1.9447600350555668e-09 1.6071075458924962e-08  2.5623571525133392e-09 -4.5597847692080876e-09 -7.0181477897989493e-09  -8.0336086393423183e-09 3.3611525329779350e-09 8.1710941726872550e-09  -2.1781710479210582e-09 1.9643446236848396e-09 3.6328438608793726e-10  4.9387005454694781e-09 3.8915671557334580e-09 9.6774589975028537e-10  3.0858209348581680e-09 1.3416471629111181e-08 1.2648917375093094e-09  -8.9111104190432594e-09 8.1149030357748426e-09 4.3476490603129546e-09  -1.6274849542559888e-09 -5.5877244108793052e-09 -4.4616870409996107e-09  -5.3969233441601651e-09 4.9278467601050604e-09 3.4564729723368216e-09  -2.1747266206034649e-09 1.1658867874359760e-09 1.6582050900483721e-09  -4.9406120329613133e-09 -9.1399647973166061e-09 7.1286670928545726e-09  3.7085342134209115e-09 -8.4541559168685479e-09 -4.6082109672041557e-09  6.3274543849627360e-10 3.0019258209815473e-10 2.6595505382343167e-09  1.1869681839644726e-09 9.6483057783469358e-09 -1.6604962847759020e-09  -1.3473417375260244e-08 -8.6412386103119172e-10 1.8997687139113342e-10  -1.9519995814073625e-08 -9.8248028342251739e-09 1.6266882252736554e-08  -2.1633430150186194e-09 -8.2415158719121755e-09 7.1487833414880927e-09  6.3372124127867935e-09 -1.6206457789911426e-10 -6.5875219836597450e-10  -4.5399826934065102e-09 5.3519179978511778e-11 1.6272318640051610e-09  -2.0692690132885572e-09 1.5081974300989940e-10 3.4252435627129506e-10  -3.3762907762460169e-09 1.2730558066665747e-09 7.0020996332957405e-10  -4.8263744736104875e-09 3.5745104972292808e-09 6.8297867673304550e-09  4.5348793405138333e-09 -7.6425842963354838e-10 -3.1572960739016487e-09  -1.0989507799773154e-09 1.2924203298666461e-09 -2.4281417108330484e-09  -5.6945962758028084e-09 1.1460664764553995e-08 1.3862865324033253e-08  -2.0571632151833358e-09 -1.0431319096719152e-08 1.5479774163428107e-09  5.2084009884035538e-09 2.8471999757791266e-09 8.9864942675695840e-09  -1.5908437463010433e-09 -5.3978789862267985e-09 -1.9563116020056184e-09  5.6464665040827662e-09 1.1436149798443271e-08 9.1621334705389293e-09  -4.5105536996544782e-09 5.8305569314089772e-09 -5.1582322463377349e-09  1.8016742932944686e-08 1.0377753559817000e-08 1.2814435717564804e-08  4.0773703076433114e-09 -2.3994800233668871e-09 -8.5545699447180818e-09  1.2876404553629539e-08 7.6872315872452611e-09 8.7579908815374879e-12  2.3256448970256637e-08 1.4532089370149807e-08 1.7827510336507550e-08  -4.7386446040468169e-09 9.6092970198611745e-09 4.5030126519939228e-09  -1.0638912582111065e-09 -3.8825055962622921e-09 5.8988460403728635e-09  -3.0285131706991241e-09 5.6528807023097520e-10 -3.7841314594629890e-10  -1.0536535594549808e-10 -3.5092066349388132e-09 -6.9376467755563202e-10  1.3762107251982839e-08 -3.1367188178751095e-09 2.0902560354323371e-09  6.3106936224052905e-09 -5.1290048633023950e-09 6.3855653758254797e-11  -1.5771472675024703e-09 -3.9105975209794967e-09 -4.1221589480570518e-09  3.7889346623313843e-09 -5.9656787432043924e-09 -3.5683991659059602e-09  1.1575413911347746e-08 -1.9688568833367119e-08 1.7878498703547908e-08  5.7347621403916338e-09 1.3060953750587374e-08 1.1961726457266261e-10  -8.8538828320976122e-09 1.5473033917650831e-08 1.7895522018702644e-09  1.5523944031013607e-09 -1.3553910863619789e-09 -4.1007034976591967e-09  -2.5696351169089721e-10 -4.8820596664026486e-10 3.5882473029608613e-10  6.9584367316030439e-10 8.1799270626140912e-10 -3.1346701907503616e-10  1.0583538887470394e-11 9.6695141448822113e-10 -2.1289314192271777e-10  -2.1928074946828955e-09 -6.6193723437131430e-11 -1.4275530768689807e-09  1.0000905561701327e-09 1.3951896237584082e-09 -3.3865500605566400e-10  -2.3843586352702011e-09 -1.2411415330213170e-09 3.9594742682239740e-10  -9.3806354774561856e-11 -7.4815010731286999e-10 3.6253954080085382e-10  -7.8549294593497911e-11 -3.1946553105694076e-10 1.6033176732207399e-10  -7.2447388818680597e-10 -5.0548529827446435e-11 -1.4169480731306142e-09  -1.0458299569376030e-10 -4.8082783750276905e-09 -1.5524495990048197e-09  -2.5013997783224821e-08 -2.6115434733463639e-08 4.8883555506764217e-09  4.0557330141162186e-09 2.1122957311961619e-09 -4.8649676143196806e-09  -1.4195259528295752e-11 -1.5438608847117118e-09 -1.0745047798380334e-09  -2.2276044723154861e-09 5.8475042057591859e-10 3.9312225476170157e-10  -6.6862699039386053e-10 5.9652377405375562e-10 -3.7152248781660740e-10  8.8935596841323420e-11 -4.4672710347357383e-10 -2.5805839609419159e-10  -2.1213263283765242e-09 -4.2308538843902687e-10 -3.6737604601170981e-10  9.7029062072287007e-10 6.0484026527788853e-10 1.3035061868333874e-10  -6.5421607114390032e-10 -4.8672542316419601e-10 6.6722672887598014e-10  1.8135982366461309e-09 5.6631412193303820e-10 -9.7252269793263008e-10  -9.0161114449706187e-11 3.2875923554875799e-10 5.0627646122527491e-10  1.1599089694734128e-09 7.3825193889131135e-09 -1.4058640150008044e-09  6.9596196484620788e-09 -1.1896991144573568e-08 3.3174011380266021e-09  -4.0263132458554179e-09 3.3181728202303369e-10 -6.0049711663592475e-09  6.6758673548791569e-11 4.3121628500130684e-09 -2.0618470434112117e-09  -7.6608599764046715e-10 -3.0091479591361572e-09 7.0203890204667887e-10  -5.7085978648126986e-10 9.4764303341026477e-10 -3.4203851097091774e-10  -5.0752722863201146e-10 -1.4338760763871964e-09 -2.1257974925300018e-09  -1.1988239079344788e-09 -9.9415956453008224e-10 -3.9636628936968787e-10  1.6065144148644046e-09 1.5348669012673484e-09 7.8719190794880640e-10  -8.9041754858495061e-11 6.5943967267432996e-10 5.4043787117200013e-10  -1.8239031527594144e-09 2.1396625275586635e-11 1.0488402439218766e-09  2.0589967644682720e-10 2.4454485427702376e-09 2.9382888665771741e-10  -3.8422573247079493e-09 -2.1779266085337175e-09 -2.4398621451511497e-09  2.7469303025793096e-08 2.9020125222189267e-08 -7.0602935877827741e-09  -4.0990495465620952e-09 -7.8365229922067291e-10 -3.1500880519476071e-09  3.1379401459069656e-09 -5.2604840625820198e-10 -3.2483450323242206e-10  1.4072638301085768e-10 7.1363379476352367e-12 -7.3974513787762393e-10  8.5691234201913937e-10 -4.3661192550617735e-10 3.6809702488333867e-10  3.1768127107945767e-09 2.6535502507077823e-09 -1.0353222587319344e-09  3.2268101803776097e-11 -1.6417231240594607e-09 -1.7346478053805927e-09  -5.8589731109871270e-10 2.8988488300462060e-09 2.4160198585254938e-09  -8.0836899655344358e-10 -1.9977795778923488e-10 -2.7039764076605915e-10  -9.5914869432608708e-10 -9.7998342854332433e-10 -1.8923084477316201e-09  2.0537853104764327e-09 1.2890056292024133e-09 2.3675346820792266e-09  -1.7297674907699146e-09 -2.7806645892729977e-09 -4.5362951687879334e-09  -1.3645546787149440e-10 2.7234993384585533e-10 4.0116847593602347e-10  -1.8920554001365683e-10 3.2511553338686708e-10 1.1312400284512309e-09  -2.8597018865518474e-11 -8.8852474543385661e-11 5.9316990740982137e-10  -1.6167392240717217e-11 -1.7073190385084822e-10 5.4741973413975906e-10  -1.9692894292775092e-10 -5.6028145809191982e-11 9.8676699654416572e-10  -1.3922280590227816e-10 -5.5803623568783392e-10 6.7353011381935265e-10  -6.6102194822478759e-11 -8.8509346416281303e-11 6.3006804427352465e-10  -2.2601161769254425e-10 2.2207137181868253e-10 6.0419121590409072e-10  7.5773184778554299e-10 3.0688667520057722e-10 5.5867968151152306e-10  -2.0272023916805535e-10 6.5679513368178785e-11 1.0519771272689873e-09  9.1031821001681198e-11 6.1510118961955472e-10 1.3868827156513293e-09  1.5385815853159642e-10 3.5071118465381235e-11 1.1351463881169630e-09  1.7454042739269748e-10 2.6131056468846867e-10 8.7070471145574792e-10  -2.8194886731770445e-11 -3.8125694260192086e-10 5.9124219986128894e-10  -8.7766403985446321e-10 -2.1674351879827463e-10 3.5356006450226025e-10  -7.4404912974357792e-10 9.3850680516545971e-11 5.2080240458292009e-10  5.9899770114100331e-10 -1.5875916511286890e-10 9.2065138112488733e-10  3.2449199171410492e-10 -1.1263676873687260e-09 1.6517300793267167e-09  -9.4511089262138550e-10 -5.5579271545539064e-10 2.9582382054769745e-10  1.7749724305756805e-09 6.0075520139630918e-11 1.6793157278913830e-09  -5.5073623674831951e-10 1.4716210816589777e-09 1.1463425118888940e-09  2.9543675539763052e-09 3.1189327692384378e-09 2.5672642407882903e-09  -1.6462657197766229e-10 8.3252256368898603e-10 5.0273713572181033e-10  6.7059187027975880e-10 -2.7157480374548726e-10 1.5829363658404754e-09  -2.4926960037670436e-09 -2.4995263655971282e-09 1.8119018242851125e-09  -1.0984278981129981e-10 1.8920715223522922e-10 7.5885669985555864e-10  2.4184067111801964e-10 1.1845630197275866e-10 1.4773538232921368e-09  -3.4635999496171933e-10 6.7629669633068283e-11 1.2094568095126166e-09  2.1504912139629882e-10 -9.5456394685838786e-11 9.1074807489554021e-10  -4.7551657041534533e-10 1.7553432970683036e-10 5.8949650798360885e-10  4.1767219789972085e-10 -1.4266496090816647e-09 1.3892671689331532e-09  -6.7444787294020450e-11 -3.7507478436197556e-09 -8.3599600404688269e-10  1.4167248776297879e-09 -1.5121101509895019e-09 3.9782200025002123e-10  4.5300302451917508e-10 2.4409719704403177e-09 -1.3910736518189201e-09  -5.4024888297280176e-10 2.4507322754540781e-09 -8.4767000238002882e-10  1.7830215859068402e-09 -4.3313963727632195e-09 -1.8484793255036790e-09  -2.5390230078810794e-09 -4.4100291234024441e-11 -1.0536034291852554e-09  3.3253092551654314e-10 2.7396301528924117e-10 7.8213324949266363e-10  2.8808859230032510e-11 -1.1724503995570062e-10 4.0033750582352069e-10  -2.0468402096818451e-10 -2.1068149022708872e-10 5.5858698035671990e-10  5.4235444566490596e-11 -4.5496139633602905e-10 1.3302836288903965e-09  3.7994447046450538e-11 2.9185409275050321e-11 7.9674236571298706e-10  -1.0007503237319948e-10 3.0905444987438513e-10 1.1651100406685816e-09  -2.1204418910126387e-11 2.0259988968523876e-10 7.2360712434906703e-10  -5.9220992227741790e-11 -3.3319482005696315e-10 8.7452907685092167e-10  -1.9559329915979171e-09 -5.9348674331749815e-09 3.9646469344111300e-11  1.4523953977162917e-09 3.5057470536765479e-09 1.1786709658870926e-09  2.5555750127631516e-09 -1.2836178573593458e-09 9.6635611627929347e-10  -3.5018981206469235e-09 2.4998548628672979e-09 1.1600891892185695e-09  -3.6487310845766778e-09 -1.0735001561248180e-09 -2.3129247903564226e-09  5.5125477630668233e-09 2.1777000813979298e-09 -7.0950013602257356e-11  -2.0822624795921601e-11 6.2045529932865010e-09 2.1338281286224093e-09  1.8754017917589746e-09 -5.1797066127781933e-09 1.5141349999099173e-09  -3.2506819786184125e-10 3.4199704212516664e-10 7.8920451698489771e-10  -2.6485295206400216e-09 9.5715111007956271e-10 1.5738265269802225e-09  1.5922129918541577e-09 -7.5418168052406182e-11 1.8488100163363578e-09  -5.1122979329382441e-10 -1.2718119834102135e-09 8.8017391880751436e-10  2.2080941270840196e-09 -7.8745485067130525e-10 1.1607530018462840e-09  -3.3667967385107212e-09 1.3690275113586874e-09 2.4316858141390658e-09  4.3381102829263752e-09 1.3503454657737669e-10 2.2328043577644741e-09  -3.5310349863944426e-10 3.2011723305070169e-09 2.3397555652416002e-09  9.7571711943626071e-10 -2.9141361843023748e-09 3.7749305279245033e-09  4.6951036225088272e-11 -6.1061978841880425e-10 2.0715889255260607e-10  1.2888851925119344e-10 -4.0477141863572801e-11 7.1227108036360349e-10  4.3447579901361101e-12 -4.4831406672997260e-10 1.6295685930912083e-10  -2.2062134195373061e-10 4.4226008183709191e-10 5.1456091267146245e-10  -3.6626796598950250e-10 7.3907245775110427e-10 6.6084569516174080e-10  4.0301445590333027e-10 -3.4724199764627530e-10 8.8649124114216039e-10  7.6592366058360451e-10 8.1635953441442045e-12 1.1012244478475694e-09  -2.3008421906532486e-10 -4.8674695370132114e-10 -8.0676564568870635e-11  -7.6217734492636998e-10 5.6231052204851624e-10 2.8276755804110591e-10  1.1003857824488346e-10 1.0669521275386269e-10 1.0952877258213434e-09  2.7122467908109977e-10 3.6238970499631176e-10 6.5599587211617235e-10  -1.6716189397774849e-10 -2.2910360441998811e-10 6.8095858446832377e-10  -2.2511712050303312e-10 4.7957026925935758e-11 1.0290698636344029e-09  -2.3069891532455206e-11 -3.3945736681346632e-11 8.6984581339293316e-10  2.6200754773963515e-10 9.2140748901794304e-11 5.4598926292174017e-10  1.0945993950073337e-10 -1.3649263115570451e-10 8.5120452261108100e-10  -2.9262522318672138e-11 -1.8427580714461051e-10 7.7537914536401539e-10  2.0381618158566622e-11 -1.5211846533995150e-11 1.2551192553343021e-09  3.7290097878074963e-10 1.1791221142103541e-11 4.0153043220844057e-10  5.5774597230521909e-10 -2.5425122845128910e-10 1.7482261715140874e-10  7.5423700134923709e-10 1.6516950629789412e-09 -1.1749863513445144e-10  -4.1322384573227101e-10 -7.5810899217039106e-10 5.9523176570986234e-10  -1.3637094676313668e-10 -2.8683114419235612e-10 4.2845665285250050e-10  -9.1130602321563605e-11 3.0842680211223351e-11 9.3838654549831502e-10  5.7101488446070628e-10 -4.8755081714946827e-10 8.8870985699885641e-10  2.9768830237850544e-10 -4.7223319002982015e-10 6.8835311891552925e-10  1.1425754023674081e-09 -3.3069674076368658e-09 3.1036641891974175e-09  -1.0698707709090567e-09 -5.1020838963812298e-09 4.8416143396399879e-09  -1.9720037524142405e-10 2.1031805018910411e-09 3.5933468730512678e-10  -1.6640115187590364e-09 1.6420965927705503e-10 5.5746346693828572e-09  -3.9457461799900364e-10 1.2903047098130250e-10 9.0501362321138031e-10  8.5119843667833101e-11 9.1010199866930334e-11 1.2668959093399517e-09  1.9647921414020810e-10 -1.7195365473105348e-10 7.2598923943657349e-10  2.8460887966443804e-10 3.3220815016535362e-10 7.3030567555778133e-10  1.6497329401561447e-08 1.9662503931913325e-09 -9.5026343235541433e-09  9.6623350652779788e-09 1.1957830504852510e-08 3.7432986884290213e-09  -9.0771135869954393e-09 -9.0860676407969890e-09 3.2345810911340171e-10  -9.8813678938805103e-09 5.3235129429475760e-09 -9.2141036325172166e-09  -5.9620584622815856e-11 -4.7605048820589461e-10 1.0113458637011330e-09  2.7434096494573293e-10 5.3282139015980925e-11 1.2887667601493633e-09  -5.2736903260534103e-10 2.5096136369868573e-10 2.3880531074110830e-10  2.4036189609230379e-10 -3.7015509185245381e-10 2.8733112342693282e-10  7.8609496089177328e-10 -5.7856413704596004e-10 5.2617196548208160e-10  5.2048405056517766e-10 6.1342682627298481e-11 4.8747367526526380e-10  2.8603689020401580e-10 -1.0655548452560494e-10 8.5366737513048474e-10  -2.2273855935791441e-10 -1.8512270772976494e-10 9.1210146314492515e-10  -6.8695308635449448e-10 -3.6840387222485540e-10 1.3256503157042129e-09  -1.6072350586798196e-09 -1.1138451480871555e-09 -8.7408700857846504e-10  -2.6025740221291921e-10 1.6071591655637591e-10 1.0993921427100419e-09  -2.1535240557474763e-10 -1.3973670492739676e-09 9.9328039993647235e-10  4.3478203355124139e-09 3.1682963038117777e-09 -1.5963510137033394e-09  1.1803701046464275e-09 1.9288172740946834e-09 -3.3483480756448242e-09  -4.1437719861699677e-09 3.3757021059248640e-09 -2.4605977991574066e-09  -7.7336040250286270e-09 -3.7851681585322079e-09 -2.6328582950310940e-09  2.9217739676752940e-10 -2.2507348548860232e-10 1.0441632762837401e-09  3.6672626847634139e-10 3.4849654111163611e-10 5.5401009451097211e-10  -1.6331632995552981e-10 -1.6158545225318512e-10 3.1601033789043223e-10  -4.8454961638865922e-10 -2.5174387559708429e-10 5.3077459489109176e-10  1.5550297305055814e-10 -6.9160698925533498e-10 1.3035236784066083e-09  -2.6572803023784424e-10 -2.8283208833926338e-10 1.4273976628357174e-09  1.5972050264182415e-09 -3.8841513735842451e-10 2.8247694280758444e-09  5.0918174200100391e-09 2.0026508568475944e-09 -1.1516331983692389e-09  3.6137316758136167e-09 -3.9715044748442257e-09 5.4954497786235137e-10  3.2128679637346013e-10 -2.8731875922069885e-09 2.2781130640086447e-09  4.5247130640342328e-09 4.5838197870857042e-09 1.6090833092067030e-09  1.2507918745272417e-11 -3.9170938829213580e-09 4.3882089692229104e-09  5.7153251256101872e-09 -1.2590568317579111e-09 4.0410349800804287e-09  -6.0622198415347593e-10 1.5466380345418255e-09 1.1427339308466973e-09  2.5008424605842766e-10 1.0395545174535386e-10 1.7526467897204542e-10  1.1743632239735626e-10 7.1305730758538724e-11 6.8045452144390408e-10  -6.9327276144822008e-10 -1.0256015275932222e-10 6.6982459340606180e-10  -4.3400229013099177e-10 1.3595878711927674e-09 -6.5292111164616618e-11  -3.2429659444583463e-10 9.2654859306561618e-11 9.8371031173584518e-10  7.2436268031247545e-10 -1.2900864622426759e-10 4.6956861346273032e-10  -2.2527603222771277e-10 -2.2462612219936131e-10 1.0508270370407643e-09  5.7312359897509499e-10 4.1297734149796329e-10 1.0594703617035721e-09  -1.8924589703357505e-10 -1.4065666563181556e-10 2.9867550101019475e-10  -1.6422314288499157e-11 -2.5848201958464999e-10 4.6431520676954426e-10  -1.1407543901219068e-10 -5.3205488188694828e-11 1.5585347876213700e-09  -1.4336975512428659e-10 2.8964623936926804e-10 9.8889908556349252e-10  4.3777490497483087e-10 -4.4168882819060312e-10 7.2330977674418186e-10  1.8629156609984000e-10 -5.7366979096763075e-10 3.2176725228802730e-10  2.0335822672644998e-10 2.2258742910766641e-10 8.1905488498593206e-10  -2.4488702142528227e-10 -4.6987081539280496e-11 1.2663865071677720e-09  -4.0507776791698086e-11 -2.4219406106075491e-11 8.2340866477189637e-10  7.2329857256452347e-10 -3.8309931047093220e-10 5.5728686843532310e-10  2.1269940149975265e-10 -3.6036400973236805e-10 5.6647714606161527e-10  -5.6892888337671809e-11 -4.2690487664636735e-10 6.7286764882597599e-10  -1.0444379872839074e-10 5.5269732006498028e-11 7.2150102151726590e-10