<?xml version="1.0"?>
<VTKFile type="UnstructuredGrid"  version="0.1"  >
<UnstructuredGrid>
<Piece  NumberOfPoints="1657" NumberOfCells="7161">
<Points>
<DataArray  type="Float64"  NumberOfComponents="3"  format="ascii">0.5 0 0  -0.5 0 0  0 0.5 0  0 -0.5 0  0.5 0 1  -0.5 0 1  0 0.5 1  0 -0.5 1  -0.07821723251988573 -0.4938441702976052 0  -0.1545084971870769 -0.4755282581477057 0  -0.2269952498692269 -0.4455032620944624 0  -0.2938926261455928 -0.4045084971879415 0  -0.353553390592598 -0.3535533905939495 0  -0.4045084971870234 -0.2938926261468564 0  -0.4455032620939436 -0.226995249870245 0  -0.4755282581474761 -0.1545084971877837 0  -0.4938441702975501 -0.07821723252023399 0  -0.4938441702976052 0.07821723251988573 0  -0.4755282581477057 0.1545084971870769 0  -0.4455032620944624 0.2269952498692269 0  -0.4045084971879415 0.2938926261455928 0  -0.3535533905939495 0.353553390592598 0  -0.2938926261468564 0.4045084971870234 0  -0.226995249870245 0.4455032620939436 0  -0.1545084971877837 0.4755282581474761 0  -0.07821723252023399 0.4938441702975501 0  0.07821723251988573 0.4938441702976052 0  0.1545084971870769 0.4755282581477057 0  0.2269952498692269 0.4455032620944624 0  0.2938926261455928 0.4045084971879415 0  0.353553390592598 0.3535533905939495 0  0.4045084971870234 0.2938926261468564 0  0.4455032620939436 0.226995249870245 0  0.4755282581474761 0.1545084971877837 0  0.4938441702975501 0.07821723252023399 0  0.4938441702976052 -0.07821723251988573 0  0.4755282581477057 -0.1545084971870769 0  0.4455032620944624 -0.2269952498692269 0  0.4045084971879415 -0.2938926261455928 0  0.3535533905939495 -0.353553390592598 0  0.2938926261468564 -0.4045084971870234 0  0.226995249870245 -0.4455032620939436 0  0.1545084971877837 -0.4755282581474761 0  0.07821723252023399 -0.4938441702975501 0  -0.07821723251988573 -0.4938441702976052 1  -0.1545084971870769 -0.4755282581477057 1  -0.2269952498692269 -0.4455032620944624 1  -0.2938926261455928 -0.4045084971879415 1  -0.353553390592598 -0.3535533905939495 1  -0.4045084971870234 -0.2938926261468564 1  -0.4455032620939436 -0.226995249870245 1  -0.4755282581474761 -0.1545084971877837 1  -0.4938441702975501 -0.07821723252023399 1  -0.4938441702976052 0.07821723251988573 1  -0.4755282581477057 0.1545084971870769 1  -0.4455032620944624 0.2269952498692269 1  -0.4045084971879415 0.2938926261455928 1  -0.3535533905939495 0.353553390592598 1  -0.2938926261468564 0.4045084971870234 1  -0.226995249870245 0.4455032620939436 1  -0.1545084971877837 0.4755282581474761 1  -0.07821723252023399 0.4938441702975501 1  0.07821723251988573 0.4938441702976052 1  0.1545084971870769 0.4755282581477057 1  0.2269952498692269 0.4455032620944624 1  0.2938926261455928 0.4045084971879415 1  0.353553390592598 0.3535533905939495 1  0.4045084971870234 0.2938926261468564 1  0.4455032620939436 0.226995249870245 1  0.4755282581474761 0.1545084971877837 1  0.4938441702975501 0.07821723252023399 1  0.4938441702976052 -0.07821723251988573 1  0.4755282581477057 -0.1545084971870769 1  0.4455032620944624 -0.2269952498692269 1  0.4045084971879415 -0.2938926261455928 1  0.3535533905939495 -0.353553390592598 1  0.2938926261468564 -0.4045084971870234 1  0.226995249870245 -0.4455032620939436 1  0.1545084971877837 -0.4755282581474761 1  0.07821723252023399 -0.4938441702975501 1  0 -0.5 0.9230769230766027  0 -0.5 0.8461538461535256  0 -0.5 0.7692307692309824  0 -0.5 0.6923076923084392  0 -0.5 0.6153846153858957  0 -0.5 0.5384615384633524  0 -0.5 0.4615384615403821  0 -0.5 0.3846153846169851  0 -0.5 0.307692307693588  0 -0.5 0.230769230770191  0 -0.5 0.1538461538467939  0 -0.5 0.07692307692339706  0.5 0 0.9230769230766027  0.5 0 0.8461538461535256  0.5 0 0.7692307692309824  0.5 0 0.6923076923084392  0.5 0 0.6153846153858957  0.5 0 0.5384615384633524  0.5 0 0.4615384615403821  0.5 0 0.3846153846169851  0.5 0 0.307692307693588  0.5 0 0.230769230770191  0.5 0 0.1538461538467939  0.5 0 0.07692307692339706  0 0.5 0.9230769230766027  0 0.5 0.8461538461535256  0 0.5 0.7692307692309824  0 0.5 0.6923076923084392  0 0.5 0.6153846153858957  0 0.5 0.5384615384633524  0 0.5 0.4615384615403821  0 0.5 0.3846153846169851  0 0.5 0.307692307693588  0 0.5 0.230769230770191  0 0.5 0.1538461538467939  0 0.5 0.07692307692339706  -0.5 0 0.9230769230766027  -0.5 0 0.8461538461535256  -0.5 0 0.7692307692309824  -0.5 0 0.6923076923084392  -0.5 0 0.6153846153858957  -0.5 0 0.5384615384633524  -0.5 0 0.4615384615403821  -0.5 0 0.3846153846169851  -0.5 0 0.307692307693588  -0.5 0 0.230769230770191  -0.5 0 0.1538461538467939  -0.5 0 0.07692307692339706  -0.007594136642501654 -0.004045741957735315 1  0.2671352096201229 -0.02102399694998625 1  0.01764383341409913 0.2536132760584658 1  -0.02666396035831023 -0.2531221455965387 1  -0.2531221455965389 0.02666396035831023 1  -0.2215292578081779 -0.1892038603591107 1  0.1892038603591108 -0.2215292578081779 1  -0.1892038603591107 0.2215292578081779 1  0.2215292578081779 0.1892038603591109 1  0.1385185436720213 -0.09057822738852793 1  0.1444278228516107 0.06230098297709098 1  -0.1036020399044679 -0.1332668134328397 1  -0.1236898625509597 0.09154779714398348 1  0.3276138866914048 -0.1493452764976681 1  -0.1493452764976681 -0.3276138866914048 1  -0.3276138866914049 0.1493452764976682 1  0.1479353928765055 0.322183943053354 1  -0.09663024938828488 0.3427470693423371 1  0.350382753551459 0.09518682362295226 1  -0.3499441325621996 -0.09531085618119063 1  0.09531085618119059 -0.3499441325621996 1  0.3758029057029099 -0.02957633010838067 1  0.02957633010838064 0.3758029057029099 1  -0.02957633010838066 -0.37580290570291 1  -0.37580290570291 0.02957633010838064 1  0.008167023249524813 0.1287506671888682 1  -0.1411725171320288 -0.01707001611904115 1  0.01869295614714423 -0.1422154233579206 1  0.1114116068465904 0.1842585037493884 1  -0.2598550650020522 -0.294657539154362 1  -0.2946575391543621 0.2598550650020524 1  0.2601808590994745 0.2960858335428702 1  0.2946575391543622 -0.2598550650020522 1  0.3322366357565687 0.2103437406355584 1  -0.2107023737883974 0.3346675180840228 1  0.2103437406355586 -0.3322366357565688 1  -0.3322366357565688 -0.2103437406355586 1  -0.0812534232444079 0.2029318716322168 1  0.0963670891699373 -0.2227021471835499 1  -0.22270214718355 -0.09636708916993723 1  0.2190419849291031 -0.119559722020513 1  -0.1087485665851406 -0.2146437707845258 1  -0.203317076811764 0.1224557072025287 1  0.2273152369504595 0.09523047733096632 1  0.1600008575320791 -0.01229387630752224 1  0.4050885445567445 -0.09912204850336188 1  -0.4050885445567446 0.09912204850336188 1  0.09892063655748151 0.4043128383227373 1  -0.0991220485033619 -0.4050885445567445 1  -0.03455328827880966 0.415059611947992 1  0.03436480353493904 -0.4160877638365437 1  -0.4160877638365438 -0.03436480353493905 1  0.4161504239778664 0.03434708459804784 1  0.08365969031159125 0.002330153091588407 1  -0.2229390493464861 -0.3596307773124036 1  0.2233161458114676 0.3613387240591179 1  -0.3596307773124037 0.2229390493464862 1  0.3596307773124037 -0.2229390493464862 1  0.390515935037582 0.1636195434767474 1  -0.3904839655777235 -0.1636285837506716 1  0.1636285837506716 -0.3904839655777235 1  -0.1638876663325903 0.3923623890350764 1  0.04384282532259486 -0.07015857662322166 1  -0.08011765448211583 -0.04742160867833382 1  0.3226797123127975 -0.06724769324647022 1  -0.06791911746174686 -0.321011490405228 1  -0.3210114904052281 0.06791911746174685 1  0.06791597125071956 0.3133322485632025 1  0.01300029933573454 -0.3336582341509043 1  -0.3336582341509045 -0.01300029933573453 1  0.3312625026944596 0.01634298279090017 1  -0.01890231217342257 0.3207204227358019 1  0.1593044755135351 0.2337613396768917 1  -0.1672342929047866 -0.132773056500856 1  0.1327730565008564 -0.1672342929047865 1  -0.04057312736015202 0.07214036689862746 1  -0.1216583376241947 0.2551263578533178 1  -0.1373396390671733 0.1663016697769111 1  -0.03904193612438347 -0.1752447455726509 1  -0.1712751339250678 0.03771861162601834 1  0.1644461726501372 0.141775045830479 1  0.1511790319801663 -0.2932104380950028 1  0.2916869062741757 0.1510279462551886 1  -0.2932104380950028 -0.1511790319801662 1  -0.1893770942190298 -0.2599721157064441 1  -0.2635796411850183 0.1942911785362421 1  0.2605218924745163 -0.1907284886484514 1  0.05220398401757594 0.06955290408511863 1  -0.2805626972065101 0.328998778205796 1  0.3302393900494474 0.2819473926997965 1  -0.3318449512303389 -0.2832306080595193 1  0.2832306080595193 -0.3318449512303389 1  0.04832342905271358 0.1877808363511603 1  -0.065696898690541 0.1410851320361489 1  -0.02462254826085986 -0.09310549957314221 1  0.09208911815902721 0.2491550245754104 1  0.4381772089070252 -0.03451370530671609 1  0.03443218218138764 0.4378039052542489 1  -0.03451016151933785 -0.4381646768787607 1  -0.4381646768787607 0.03451016151933783 1  -0.05325027090288098 0.2628866993452785 1  -0.09689651082758409 0.02496399895247979 1  -0.2319704355840505 0.2759202109613136 1  0.2310272246689467 -0.2710730170749428 1  0.2726687263497516 0.2357350096492068 1  -0.2707894989087602 -0.2307430766710918 1  0.0336413547679618 -0.2027252641275629 1  -0.2018898444819838 -0.03359141884633879 1  -0.4063469422152409 0.1729714595109716 1  -0.1729714595109716 -0.4063469422152409 1  0.1703351844603517 0.4017734051354755 1  0.406346942215241 -0.1729714595109716 1  0.1062645597092786 -0.4273938075414044 1  -0.4273938075414044 -0.1062645597092787 1  0.4274699861971816 0.1062430180279853 1  -0.1055593867415405 0.4239082997540863 1  0.2114787942763156 -0.05534444370504381 1  0.2111840717711281 0.02625652447817698 1  -0.01987966435303436 0.1991166824559048 1  0.09743269749791104 0.1212317405257936 1  0.07902357234820491 -0.1415259639585728 1  -0.1527864160148222 -0.07674833379122445 1  -0.2932561548882097 -0.3421707315115853 1  -0.34197627736778 0.2930487078747591 1  0.2933466339041634 0.3427676239539843 1  0.3421707315115853 -0.2932561548882097 1  0.3839561780338137 0.2360638943783668 1  -0.3840708713079414 -0.23615
[...]
<PointData  Vectors="f_15"> 
<DataArray  type="Float64"  Name="f_15"  NumberOfComponents="3" format="ascii">2.5502280170582469e-08 1.4917733943502856e-08 -3.8856250348658585e-09  -3.7898815693097069e-08 -1.6577338682324034e-08 -3.4737233408341966e-09  -2.3907316160185817e-08 4.2948583212764518e-08 -1.1355065472258342e-09  3.3234842471817554e-09 -4.2010820414437730e-08 -1.3581036944632852e-08  -5.5622782813576719e-08 -1.1685419725438934e-08 -1.2318724126130080e-08  5.9253009178164203e-08 1.6362360066279035e-08 -1.9144674564221046e-08  -1.0170218568894811e-09 -4.7929077978594700e-08 -2.0299494809775095e-08  -4.5325240483476087e-09 4.7465669112262709e-08 -2.5491650841846987e-08  -2.0408715071805613e-08 -3.4235367983075759e-08 -2.2542164735841953e-08  -6.1271949695400353e-10 -3.1651038239617007e-08 5.4104647878968598e-09  1.8219507554629074e-10 -1.3600313857597792e-08 1.4076410548298578e-08  -2.0625110379406104e-08 -3.1934262183715792e-08 -2.2176568602631300e-08  -2.5519746643888636e-08 -1.8489358205425748e-08 -1.9145658450958675e-08  -2.1046284175411688e-09 -7.7702643435802481e-09 -1.2578686448104596e-09  -1.2484404887407113e-08 -5.8549979193140133e-09 -1.9719558642160250e-08  -3.3945676374015267e-08 8.3735763322985252e-10 -8.6246999534745049e-09  -2.9960830477330884e-08 -1.1867403123484069e-08 -1.5074723576322073e-08  -3.0501668799690685e-08 9.3292992015570978e-09 -1.5206941712718241e-08  -5.4041791477074378e-08 5.4703868759298256e-08 -3.6164723543742372e-08  -3.3387635855279846e-08 2.5222200226484973e-08 1.0760888833888096e-08  -7.5385750934321470e-08 3.3225363631779543e-08 -4.0895152243511330e-08  -1.8228149591291847e-08 3.2881719120036377e-08 -6.2916052745716359e-09  -1.5244703639139357e-09 -2.2341329056629932e-09 -5.7646079853725713e-09  -3.2605806597426728e-09 3.6442497524496048e-08 -3.1237787123727181e-08  2.6771335427671420e-09 1.7172607966227898e-08 1.6571809865399298e-08  -2.9198823819617021e-08 7.2955070260786525e-08 -4.1895424994397154e-08  5.2698338923647981e-10 2.9686377369234790e-08 -1.8937299773753439e-08  4.3969867497873946e-08 6.4093733157320927e-08 -6.9393231634423014e-08  4.6058358460146800e-09 1.9949927354972317e-09 3.9699664458463566e-09  1.5231867747124631e-08 4.2848620044529832e-08 -2.6955674077894740e-08  1.0032175116627342e-08 5.7368929668415612e-09 -1.1878158712321619e-08  2.8387391515651115e-09 -3.2856926136538908e-09 -1.4005087934633053e-08  1.5417963466625055e-08 -5.0569500544570700e-09 -7.9786610616334931e-09  1.3690389870346226e-08 -2.2985559144701692e-10 1.0860172333015734e-08  5.7137392318267478e-08 2.1326863464120145e-08 -2.9657755416939747e-08  2.6546805618749630e-08 -2.4867912486416386e-08 -9.0472088921580270e-09  4.8701543573334055e-08 4.0700842579582019e-09 -4.0490539934749830e-08  7.7657226327224386e-09 2.1597637091941927e-09 6.6158698575074310e-09  3.5674172640226817e-08 -1.4970411493825634e-08 -3.3124732791835213e-08  1.7998990389197162e-08 -1.5324098674875983e-08 -1.6141063789541204e-08  -8.8953467457568696e-09 -1.5791175319207121e-08 -1.2767338368045993e-08  -6.3331595029327101e-09 -6.3783518388656987e-08 -1.3618509086231053e-08  3.1516051321802913e-08 -4.1240871698736352e-08 -1.6532246984041272e-08  1.0229085640082660e-08 -1.1193187561217113e-08 -2.6668075191293903e-09  4.1567872235222121e-09 7.8719671675862713e-09 -7.3797827566907587e-09  8.3216736344375987e-09 2.1425245204123075e-08 -1.7834641533440749e-08  2.2456810746819963e-08 3.8395014374096593e-08 -3.4384138256462124e-08  -6.3481071507581121e-09 3.9364572057309460e-08 -3.1797805587276506e-09  5.9019086959767494e-09 6.7130588716511333e-09 -2.0789593933942030e-08  3.0641169174596902e-09 -1.7627757570666544e-08 -1.1434708464813407e-08  3.6710106189206689e-08 5.0094126576295545e-09 -1.6953934987181156e-08  5.0054766866593279e-08 2.0632591344569514e-08 -4.7547599103819946e-08  3.6573342104189475e-08 1.6685997057716518e-08 -4.4773817214634879e-08  8.7731658306128032e-09 -3.9533949266865994e-09 -3.4856954314777592e-09  2.8622076613455298e-08 -9.3499723768142785e-09 -1.8913919526313885e-08  1.8227090588966775e-08 -1.0038619346211198e-08 -1.5019638314844517e-08  2.4083652196183194e-08 -7.2302161410618803e-09 -1.7653051078064312e-08  1.7573588539647655e-08 -1.4911744429005121e-08 -2.9005770041593978e-08  -6.7012388906645785e-09 -5.5619442903967524e-09 -5.7378501413398682e-09  6.1242215769028585e-09 -1.4476302304952286e-08 -7.5523836165179401e-09  1.9882081701166226e-08 -3.7350466217131109e-08 -3.8043418654449531e-08  1.5749500210941235e-08 -2.9056001253059228e-08 -4.0718079910407955e-08  1.2668800579272942e-09 -2.4503167574580794e-08 -2.5141880373008166e-08  3.8808925731891422e-09 4.9783090945356193e-09 -3.1829801638230940e-09  -2.8716145507013958e-08 -4.6319912188589701e-08 -3.6107694553608257e-08  8.3207675071206445e-09 -3.7164098006784912e-08 2.7897173924811393e-09  -4.7467463620990680e-08 -3.2233508717395135e-08 -4.2969425495936837e-08  -1.6709211829815966e-08 1.2543679251538147e-09 1.1307293279734721e-08  -4.2807563228087786e-08 -2.3582360741694886e-08 -1.4632368903254173e-08  -6.0715213725830079e-08 -3.4950200654960533e-08 -4.5184472079016879e-08  -2.7587868115903528e-08 -1.9548986282519161e-08 -3.9432025111173885e-08  -2.1164398351727911e-08 1.3924744523425073e-09 -1.8041282080254244e-08  4.3024350706014109e-10 -3.0056596463987547e-09 -1.0751844006199557e-08  -5.4978344505258437e-09 1.9805556384515367e-08 -8.0012348611041019e-09  -5.3340949891295860e-08 1.2877860283285358e-08 -1.2334094090939482e-08  -2.8699990871223148e-08 2.4267094365660783e-08 -4.3262628742539989e-09  -8.2056595918729652e-09 2.0390618991872502e-08 -2.1331729238111405e-09  -1.4192465346618778e-08 1.4843219204840178e-08 -2.7653670201158962e-09  -2.7664430595234490e-08 5.0297431289599577e-08 -4.5926308907343661e-08  -1.8695453554991523e-08 2.1315330607646847e-08 -3.5264985971316123e-08  3.8466104231606133e-08 1.4797546943258632e-08 -6.8177342545582242e-09  -3.3774026112971584e-09 9.1910817385227282e-09 -1.3832035927987963e-08  5.4432342534033188e-10 1.1176681614356533e-08 -4.3587079109250560e-11  -1.8948077300637980e-09 -1.2345939361631386e-09 9.2375479522098961e-09  3.4723416291173735e-10 -2.9823613765986982e-09 1.0422247212356374e-08  4.3787693890428918e-09 -1.5606426690307962e-09 1.4967067095948963e-08  -6.6864004371379616e-10 -2.9856582369927160e-09 1.0311482418644274e-08  7.5685923407021737e-09 5.8172552803363787e-09 6.8589725186923478e-09  8.9460813034006220e-12 2.1915900373698383e-09 4.5713823441902576e-09  -2.5758013912165038e-09 -5.7452077376609066e-09 -1.6113668745087207e-09  -2.7170041149585958e-11 -1.7442176038020197e-08 -6.6539670653343261e-09  -6.2786722407972378e-09 4.4147426280492421e-09 -7.3681195486608844e-10  -3.3540349001940794e-08 2.4107161249498200e-08 -3.6176895043044639e-09  -8.5586700936320905e-09 5.5998396338988283e-09 -1.3200433464065532e-08  -5.5735445514192479e-09 4.3608769433196528e-09 4.6186152482730986e-11  3.1444786003163911e-09 -1.9163643707023136e-09 4.1908118217662806e-09  -1.5674300464241919e-10 -1.5297985272873835e-09 1.0685396366236043e-08  -4.1913782041621911e-10 1.0548987194731635e-11 8.5781811769202173e-09  6.4465321273636660e-09 2.0924925239915730e-09 1.0987462727124652e-08  -1.5333382376594348e-09 -3.6551042231443063e-09 8.1281523908041345e-09  7.1802702534952100e-09 2.4576757228958081e-09 5.9681578782201069e-09  1.7130183017507797e-09 1.1569740109413552e-09 -1.3186539506505912e-09  7.2539489904918561e-09 4.4545739163459416e-09 -8.0962437629375110e-09  6.6321180515786972e-09 -1.8084057811266200e-08 -1.1459434183702884e-08  -4.1783629477631843e-08 -2.5524486011799497e-08 -1.3507537905177247e-08  8.4642665694951899e-09 4.2180627236201038e-09 -1.0384368406578417e-08  2.8052606287728555e-10 -1.7991873722141737e-08 4.3440423710355696e-09  3.4245953821656577e-09 6.5987365631587036e-09 5.5944834450831811e-09  2.1746914351144218e-09 -4.3066572922663643e-09 1.0033465420138269e-08  1.2032122889459404e-09 3.6411699685807262e-09 1.6443455465448479e-08  1.9885404778325009e-09 3.6380569716652847e-09 1.0164494985599017e-08  -1.7189254242677009e-09 -2.1393689509219824e-09 6.5620457068209470e-09  2.2618477592700571e-10 9.3693357001124590e-10 6.4615208544522530e-09  2.8449603809200003e-09 7.3642007429945967e-09 -2.3743959634576795e-13  -2.0495319168614757e-09 1.4035798865107635e-09 -1.0193373821959419e-08  8.8984923042932091e-09 1.0855301868987004e-08 -3.4582961234412145e-09  2.3586659002932291e-08 -2.4584047624151251e-08 1.2614567697062454e-09  1.2202570446572193e-08 -4.0348536431657907e-09 -1.1298965795294371e-08  -1.9950293807817858e-09 7.8892824392782516e-10 -8.9732306482693553e-11  1.9771992899339319e-09 -8.9950285685301379e-11 1.1106504130843216e-08  -3.6017410560096503e-09 2.5066253140642668e-09 7.8667240127080435e-09  3.0383891322748490e-10 -1.3881608546037590e-08 9.0613126314751285e-09  -2.0256831415514495e-09 4.0250816855165324e-09 1.0269549617791590e-08  6.7637766393486174e-11 -8.7860877884075252e-09 3.7017963390202844e-09  -7.0451830902373878e-09 -2.6271500023402044e-09 1.1020685667881522e-08  -3.7838458701055643e-09 3.4702624498563695e-09 4.4897539861586331e-09  -1.2153692477564417e-08 2.7671729293457217e-09 -6.5565906748820682e-09  -1.2852200762306016e-08 2.4678402227227098e-12 -1.1450228737364448e-08  -7.5854031104921738e-10 -2.4370979100370231e-09 -2.2281081360579158e-08  -2.3673126774797073e-09 1.7681603209201831e-10 -2.6426357409011209e-08  -1.2001280293762560e-09 5.9622106423899272e-10 -2.4332236157802968e-08  7.3012267130252580e-10 2.9712948390590899e-09 -2.2096480074314547e-08  1.8684516174784490e-09 1.0848094721379896e-09 -2.3834668121466558e-08  4.6861234353678146e-09 6.8721934387119145e-12 -2.5825857661880111e-08  -1.6013072723189272e-09 1.7710901450448868e-09 -2.1017422060549655e-08  2.4188661141969086e-09 -1.2267975953324111e-09 -2.2760435463745195e-08  -4.6904869582291392e-09 -2.2847630557851238e-09 -2.4073006232531229e-08  -2.3916243211729952e-10 -4.7594419920595108e-10 -2.8775941535781658e-08  6.4734363779852326e-10 -3.6463184724138750e-09 -2.5221631859822057e-08  -1.3551635656617192e-09 2.2675591568041378e-10 -2.8858378855412645e-08  2.0440476409382334e-09 2.1967698512592447e-10 -2.6629294302332821e-08  -6.8691021055327849e-09 5.2671112926736034e-09 -1.8390509485079144e-08  6.4804050412789927e-09 1.1669526665718450e-08 -1.8382801759450127e-08  7.0528919611639966e-09 -2.2725635135356305e-09 -2.0683275895336042e-08  -6.1655547939900166e-09 -7.7787229161962550e-09 -1.9729284145401780e-08  9.8536820503082266e-10 -2.8956021219367670e-09 -2.0196711406973999e-08  -3.7541449374898436e-09 -1.7229407793322483e-09 -1.7509805518083943e-08  2.3410673599453572e-09 -1.1974589357402498e-09 -2.0776177891400537e-08  -4.6772441048137529e-10 1.9768736124461743e-09 -1.9042660681454386e-08  -2.0805316068728073e-08 -9.4171781535003018e-10 -1.5397151549551628e-08  -3.7606454196146204e-09 -8.3844510999767635e-09 -1.6348351883806904e-08  9.1187956209320501e-10 8.7643901102652454e-09 -2.0766910085206549e-08  1.1535599447149898e-08 3.3345932029018318e-09 -1.6221107181308055e-08  -2.6364315619505296e-09 -2.6828639032842482e-09 -2.8053752050419618e-08  5.8588039426102440e-10 -2.7851693868261396e-09 -3.1555457232757431e-08  -2.4048843978726311e-09 -8.5142492943557164e-10 -2.6179924503194354e-08  1.7265525401415055e-09 1.0923666986501769e-09 -2.3706353029771002e-08  5.6134189917284568e-09 6.5395224716392336e-09 -1.8939168756139217e-08  5.2337017840423277e-09 -3.7180705556074097e-09 -2.2529666382857959e-08  -5.4285132861753053e-09 9.2044834368056020e-10 -1.1695689356582211e-08  -1.2872695845835887e-08 1.0779392068341415e-08 -1.5690260395005950e-08  -3.1541443590517396e-09 -8.7404127880192153e-09 -1.7112646557204824e-08  3.8708783760821542e-09 -1.2644288828000284e-08 -1.8406565697557113e-08  -1.0291023246035304e-08 1.8306479021736592e-08 -1.2273692578682516e-08  8.1890794147495917e-09 1.1173604646328735e-09 -1.7169462682716313e-08  -1.4185058374266831e-09 -1.2977638396864239e-09 -2.6183687652059420e-08  -4.0756453536862831e-09 4.1285531964666070e-09 -2.0925564639828709e-08  7.5564375222586129e-11 1.6776732979894156e-09 -2.1746025366123705e-08  5.6983643429940088e-10 1.6355038372870099e-09 -2.5615255175188125e-08  9.4641957055748589e-10 -2.8502816950107548e-10 -2.7339095729313593e-08  2.6402427058392916e-10 -1.0865774979309090e-09 -2.5211754744183224e-08  -3.1110082152658258e-10 -2.8401928364922907e-09 -2.4567361034715063e-08  6.6785889633564858e-10 5.2825456816832568e-10 -2.4333803954562038e-08  -7.9848373357689799e-09 -2.2002835030750920e-09 -1.4835207158857141e-08  9.1294433084818050e-09 -4.3661225078995304e-09 -1.8485961409038922e-08  -2.8744609136574925e-09 -8.4977596004714802e-09 -1.2640285464268566e-08  8.2216171263658232e-10 7.2655967417848367e-09 -1.4813511717544318e-08  -9.3287014667564296e-09 6.3751399995835666e-10 -2.3561568952444034e-08  8.8565740184245409e-09 -3.6594268690805176e-09 -2.8119861584759656e-08  -3.5553409126817828e-09 -1.1911250569292760e-08 -3.1889880035889948e-08  2.6300268149508546e-09 7.4620528293788890e-09 -2.2098596428128255e-08  -1.0026105501879876e-09 6.7504668750995785e-10 -2.8759565734663675e-08  9.5636032771612403e-09 5.8492209879908836e-09 -1.9653142673223450e-08  -7.1312885405937219e-09 -9.1838378676133621e-09 -1.6899375281001729e-08  8.4302359990426088e-09 8.2520966399072906e-10 -1.8653638708957378e-08  -1.1168547432648612e-08 9.0702189801186443e-09 -1.5861245756001672e-08  2.2336304802771460e-09 -5.8486415970090513e-09 -2.0407139183518592e-08  -3.6743375043602249e-09 2.5420872668863891e-09 -2.4071923419949496e-08  -1.0830457849247700e-09 -2.7616118809989315e-09 -2.1006257203174354e-08  -4.4754348162445284e-10 1.0757154652278168e-09 -2.6149660597112845e-08  -2.4430035415297742e-09 4.0486261297507935e-09 -2.1163389306932424e-08  3.3175910992084364e-09 1.3432803911071211e-09 -2.4458943767952137e-08  -4.4611516457440595e-09 2.0071606242278841e-09 -1.8338547330413343e-08  -1.4009791046153698e-09 4.6828288420119843e-09 -2.1118889972628084e-08  8.1834454953982662e-09 -9.5185248776928735e-10 -2.1489857460284407e-08  -2.5550162023802467e-09 -2.2690017027363780e-09 -2.1631718499361876e-08  -3.1206556647084834e-10 2.0048072072462885e-09 -2.2455884824585782e-08  3.0724927524631206e-09 -3.0294373101099059e-09 -1.9879359372300882e-08  -4.1024815107780465e-09 2.1686613015962781e-09 -1.8839637088349257e-08  -2.5246370674209799e-09 -4.0571711849249000e-09 -2.2233316072133150e-08  -2.5597506839220344e-09 -3.3691376853219670e-09 -2.0879355055957142e-08  9.0172220955150597e-10 2.4771190099117876e-09 -2.1730283732088473e-08  -1.0636306282303550e-10 -2.5603672734760966e-09 -2.5549987550977525e-08  -1.7838583546182167e-09 -1.8215242538135773e-09 -2.4509666162870270e-08  -3.2755072280162017e-10 -3.9131867142579823e-09 -2.0877343790742935e-08  1.0104699431682778e-09 7.4406649370681814e-11 -2.5702908837022105e-08  -1.3231814587145391e-09 8.8642029119791425e-10 -2.7743369753282898e-08  1.4509697574021857e-09 1.3012089972145975e-09 -2.9813059804226641e-08  -1.0389956343250503e-09 -6.1810648387839655e-10 -2.0757039979948644e-08  -2.1638291262146577e-09 5.2515641342976297e-10 -1.6436847825948105e-08  -6.0130836494550071e-09 -7.5559486669157436e-09 -1.8566689700039108e-08  -2.7482168644020039e-10 2.2407526037946780e-09 -2.0551962928395983e-08  1.8476544854582967e-09 3.9763337453881190e-09 -1.9838848748144221e-08  2.4609807654896826e-09 -5.0349676858803821e-10 -2.3812697759641027e-08  -6.6386843623188694e-09 4.5181011252556715e-09 -2.1780611601432075e-08  -2.0874465633599070e-09 -2.9724381185735734e-09 -2.7656222066852907e-08  1.7499512994069677e-09 1.5500479550003031e-09 -2.2578726973377743e-08  -1.9489019753922763e-09 1.1116602789880458e-08 -2.2666946927287089e-08  3.0689470659087815e-09 -2.8701920787227477e-09 -1.6188084360808268e-08  -2.6350354549513197e-09 2.3351176180757424e-09 -2.5562887820232086e-08  1.0402464944225440e-09 6.2057969544562476e-10 -2.7345821338306410e-08  -1.7311745023374223e-09 -2.7744220227679187e-09 -2.7779903700007265e-08  7.5162100422037014e-10 2.5073581631262038e-09 -2.5966290281255747e-08  -4.4051217814748415e-10 -2.4172979585023377e-09 -2.1502379980346227e-08  -1.3287566592361591e-08 1.1364011929267675e-09 -2.0411442017116483e-08  2.6645586932250711e-08 -6.3050542919025296e-09 -5.1187842806007586e-09  -2.0605615892805270e-08 3.9980868925521841e-09 -3.9039430824977944e-09  9.7699748733624891e-09 -1.1689526572044957e-08 -1.5867066227222640e-08  4.2622017360919481e-10 -5.1678942861868900e-10 -2.5199386437613640e-08  6.4944690295097594e-10 6.0624510198616626e-10 -3.0276354863205274e-08  2.3028699696389237e-09 -5.9521570634848387e-09 -1.9671561974100275e-08  -5.2127843767706351e-09 4.2559250302814521e-09 -1.7770455821118827e-08  -5.1229511409353792e-09 -2.4676251912348272e-09 -2.2053429234021896e-08  1.2920084362556713e-09 2.0997956967493307e-09 -2.1397549637756827e-08  -3.7750125140210891e-09 6.9051712921712912e-10 -2.5335528560108373e-08  1.9765522439316587e-09 1.3584909903049766e-10 -2.5564606653067479e-08  1.1439150684329263e-08 -3.8324518824028029e-10 -1.8301999208260031e-08  9.5845160942871093e-09 1.4999260717919283e-08 -7.1176195503573072e-09  -3.7787912154130002e-09 -8.1036048148343104e-09 -1.6347270893947231e-08  -7.8839838352967524e-09 7.7470740774332195e-09 -1.6216718180515001e-08  2.8620604332539925e-09 1.3535911778771108e-09 -1.1336959531344851e-08  9.1378082626127190e-09 -1.6108970359527081e-08 -9.7827086669324579e-09  -2.0330066310284600e-09 1.7478240794002285e-09 -9.0521084307315899e-09  6.5427703289069621e-09 -1.5307438717683121e-09 -9.1427199235811404e-09  5.3604796244149434e-10 2.2398651213330944e-09 -2.3711149722798824e-08  8.6768373436112906e-10 3.0163994330106518e-10 -2.2085790152908700e-08  1.9897863738218567e-09 -1.3666801432584548e-09 -2.0015414885352424e-08  1.3240653014431108e-09 1.1670829898261832e-09 -2.4343709410549537e-08  -2.8724565882742197e-09 3.4272957929565102e-09 -2.9734908491171548e-08  1.4066970009328215e-09 -6.3187203257143285e-10 -2.7108651618811483e-08  -1.3722415548793539e-09 9.5051441431382607e-09 -2.3079051591322708e-08  -5.0513209598200398e-09 -8.1060989972107834e-09 -1.3533455674312226e-08  -1.1154489979696676e-08 1.3957624566987620e-09 -1.8547160573243270e-08  -1.0135899069389564e-08 1.4176421465343095e-08 -2.0397431877437965e-08  -1.7506044861109181e-08 -1.6110861813938923e-08 -1.8820660823574920e-08  3.0719923557826577e-09 1.2293740545517217e-08 -2.5115380883750656e-08  -1.9081127385623047e-08 7.3889974945097558e-09 -2.4235902112542662e-08  5.2374449393308818e-09 -1.0625438896431875e-08 -1.7329113179083407e-08  -2.1644329715626525e-09 -3.3307422331007902e-09 -1.8308842813117038e-08  -1.1000880236760510e-09 5.2297175133358650e-09 -2.4820635901917609e-08  3.9075430750687756e-09 2.5378342261448248e-09 -2.4071189479508837e-08  5.1418892232151077e-09 -8.3087805762795186e-09 -1.8839379632032072e-08  4.4787416521320848e-09 -1.1708126877969012e-09 -2.2519169008212050e-08  -4.7806035122069029e-09 1.8100635981046095e-09 -2.1692725591644149e-08  1.5567267164916869e-09 3.0119512059388388e-09 -2.3941806677190021e-08  -5.0627304813207064e-09 -1.6436960257702549e-09 -2.4479430141398620e-08  3.3823709237241244e-09 -1.1025304879758221e-10 -2.2207583764077802e-08  4.1076430808419480e-10 5.3846361163923314e-09 -2.1409378285423976e-08  1.8419329654523246e-09 -1.8538517995009910e-09 -2.6676839741401976e-08  1.3047146236783810e-09 -8.5877144501973317e-10 -2.5717307362574445e-08  -3.8553996830755675e-09 7.1159154096601870e-10 -2.1651759361258464e-08  3.9155048162440877e-11 5.7701751163303925e-09 -1.9405353753479956e-08  5.1921513717278444e-11 -1.4061816852611944e-09 -1.8763004057332205e-08  8.2894139741615015e-10 -1.1932280392005843e-09 -2.0005409471454529e-08  1.7769144982551373e-10 -9.3646181574863424e-10 -2.3142587252784501e-08  -5.8175359974915910e-09 4.4079032954716240e-09 -2.1647467234240478e-08  2.9163566134108248e-10 2.6482527416376535e-09 -1.6242968329309061e-