<?xml version="1.0"?>
<VTKFile type="UnstructuredGrid"  version="0.1"  >
<UnstructuredGrid>
<Piece  NumberOfPoints="1657" NumberOfCells="7161">
<Points>
<DataArray  type="Float64"  NumberOfComponents="3"  format="ascii">0.5 0 0  -0.5 0 0  0 0.5 0  0 -0.5 0  0.5 0 1  -0.5 0 1  0 0.5 1  0 -0.5 1  -0.07821723251988573 -0.4938441702976052 0  -0.1545084971870769 -0.4755282581477057 0  -0.2269952498692269 -0.4455032620944624 0  -0.2938926261455928 -0.4045084971879415 0  -0.353553390592598 -0.3535533905939495 0  -0.4045084971870234 -0.2938926261468564 0  -0.4455032620939436 -0.226995249870245 0  -0.4755282581474761 -0.1545084971877837 0  -0.4938441702975501 -0.07821723252023399 0  -0.4938441702976052 0.07821723251988573 0  -0.4755282581477057 0.1545084971870769 0  -0.4455032620944624 0.2269952498692269 0  -0.4045084971879415 0.2938926261455928 0  -0.3535533905939495 0.353553390592598 0  -0.2938926261468564 0.4045084971870234 0  -0.226995249870245 0.4455032620939436 0  -0.1545084971877837 0.4755282581474761 0  -0.07821723252023399 0.4938441702975501 0  0.07821723251988573 0.4938441702976052 0  0.1545084971870769 0.4755282581477057 0  0.2269952498692269 0.4455032620944624 0  0.2938926261455928 0.4045084971879415 0  0.353553390592598 0.3535533905939495 0  0.4045084971870234 0.2938926261468564 0  0.4455032620939436 0.226995249870245 0  0.4755282581474761 0.1545084971877837 0  0.4938441702975501 0.07821723252023399 0  0.4938441702976052 -0.07821723251988573 0  0.4755282581477057 -0.1545084971870769 0  0.4455032620944624 -0.2269952498692269 0  0.4045084971879415 -0.2938926261455928 0  0.3535533905939495 -0.353553390592598 0  0.2938926261468564 -0.4045084971870234 0  0.226995249870245 -0.4455032620939436 0  0.1545084971877837 -0.4755282581474761 0  0.07821723252023399 -0.4938441702975501 0  -0.07821723251988573 -0.4938441702976052 1  -0.1545084971870769 -0.4755282581477057 1  -0.2269952498692269 -0.4455032620944624 1  -0.2938926261455928 -0.4045084971879415 1  -0.353553390592598 -0.3535533905939495 1  -0.4045084971870234 -0.2938926261468564 1  -0.4455032620939436 -0.226995249870245 1  -0.4755282581474761 -0.1545084971877837 1  -0.4938441702975501 -0.07821723252023399 1  -0.4938441702976052 0.07821723251988573 1  -0.4755282581477057 0.1545084971870769 1  -0.4455032620944624 0.2269952498692269 1  -0.4045084971879415 0.2938926261455928 1  -0.3535533905939495 0.353553390592598 1  -0.2938926261468564 0.4045084971870234 1  -0.226995249870245 0.4455032620939436 1  -0.1545084971877837 0.4755282581474761 1  -0.07821723252023399 0.4938441702975501 1  0.07821723251988573 0.4938441702976052 1  0.1545084971870769 0.4755282581477057 1  0.2269952498692269 0.4455032620944624 1  0.2938926261455928 0.4045084971879415 1  0.353553390592598 0.3535533905939495 1  0.4045084971870234 0.2938926261468564 1  0.4455032620939436 0.226995249870245 1  0.4755282581474761 0.1545084971877837 1  0.4938441702975501 0.07821723252023399 1  0.4938441702976052 -0.07821723251988573 1  0.4755282581477057 -0.1545084971870769 1  0.4455032620944624 -0.2269952498692269 1  0.4045084971879415 -0.2938926261455928 1  0.3535533905939495 -0.353553390592598 1  0.2938926261468564 -0.4045084971870234 1  0.226995249870245 -0.4455032620939436 1  0.1545084971877837 -0.4755282581474761 1  0.07821723252023399 -0.4938441702975501 1  0 -0.5 0.9230769230766027  0 -0.5 0.8461538461535256  0 -0.5 0.7692307692309824  0 -0.5 0.6923076923084392  0 -0.5 0.6153846153858957  0 -0.5 0.5384615384633524  0 -0.5 0.4615384615403821  0 -0.5 0.3846153846169851  0 -0.5 0.307692307693588  0 -0.5 0.230769230770191  0 -0.5 0.1538461538467939  0 -0.5 0.07692307692339706  0.5 0 0.9230769230766027  0.5 0 0.8461538461535256  0.5 0 0.7692307692309824  0.5 0 0.6923076923084392  0.5 0 0.6153846153858957  0.5 0 0.5384615384633524  0.5 0 0.4615384615403821  0.5 0 0.3846153846169851  0.5 0 0.307692307693588  0.5 0 0.230769230770191  0.5 0 0.1538461538467939  0.5 0 0.07692307692339706  0 0.5 0.9230769230766027  0 0.5 0.8461538461535256  0 0.5 0.7692307692309824  0 0.5 0.6923076923084392  0 0.5 0.6153846153858957  0 0.5 0.5384615384633524  0 0.5 0.4615384615403821  0 0.5 0.3846153846169851  0 0.5 0.307692307693588  0 0.5 0.230769230770191  0 0.5 0.1538461538467939  0 0.5 0.07692307692339706  -0.5 0 0.9230769230766027  -0.5 0 0.8461538461535256  -0.5 0 0.7692307692309824  -0.5 0 0.6923076923084392  -0.5 0 0.6153846153858957  -0.5 0 0.5384615384633524  -0.5 0 0.4615384615403821  -0.5 0 0.3846153846169851  -0.5 0 0.307692307693588  -0.5 0 0.230769230770191  -0.5 0 0.1538461538467939  -0.5 0 0.07692307692339706  -0.007594136642501654 -0.004045741957735315 1  0.2671352096201229 -0.02102399694998625 1  0.01764383341409913 0.2536132760584658 1  -0.02666396035831023 -0.2531221455965387 1  -0.2531221455965389 0.02666396035831023 1  -0.2215292578081779 -0.1892038603591107 1  0.1892038603591108 -0.2215292578081779 1  -0.1892038603591107 0.2215292578081779 1  0.2215292578081779 0.1892038603591109 1  0.1385185436720213 -0.09057822738852793 1  0.1444278228516107 0.06230098297709098 1  -0.1036020399044679 -0.1332668134328397 1  -0.1236898625509597 0.09154779714398348 1  0.3276138866914048 -0.1493452764976681 1  -0.1493452764976681 -0.3276138866914048 1  -0.3276138866914049 0.1493452764976682 1  0.1479353928765055 0.322183943053354 1  -0.09663024938828488 0.3427470693423371 1  0.350382753551459 0.09518682362295226 1  -0.3499441325621996 -0.09531085618119063 1  0.09531085618119059 -0.3499441325621996 1  0.3758029057029099 -0.02957633010838067 1  0.02957633010838064 0.3758029057029099 1  -0.02957633010838066 -0.37580290570291 1  -0.37580290570291 0.02957633010838064 1  0.008167023249524813 0.1287506671888682 1  -0.1411725171320288 -0.01707001611904115 1  0.01869295614714423 -0.1422154233579206 1  0.1114116068465904 0.1842585037493884 1  -0.2598550650020522 -0.294657539154362 1  -0.2946575391543621 0.2598550650020524 1  0.2601808590994745 0.2960858335428702 1  0.2946575391543622 -0.2598550650020522 1  0.3322366357565687 0.2103437406355584 1  -0.2107023737883974 0.3346675180840228 1  0.2103437406355586 -0.3322366357565688 1  -0.3322366357565688 -0.2103437406355586 1  -0.0812534232444079 0.2029318716322168 1  0.0963670891699373 -0.2227021471835499 1  -0.22270214718355 -0.09636708916993723 1  0.2190419849291031 -0.119559722020513 1  -0.1087485665851406 -0.2146437707845258 1  -0.203317076811764 0.1224557072025287 1  0.2273152369504595 0.09523047733096632 1  0.1600008575320791 -0.01229387630752224 1  0.4050885445567445 -0.09912204850336188 1  -0.4050885445567446 0.09912204850336188 1  0.09892063655748151 0.4043128383227373 1  -0.0991220485033619 -0.4050885445567445 1  -0.03455328827880966 0.415059611947992 1  0.03436480353493904 -0.4160877638365437 1  -0.4160877638365438 -0.03436480353493905 1  0.4161504239778664 0.03434708459804784 1  0.08365969031159125 0.002330153091588407 1  -0.2229390493464861 -0.3596307773124036 1  0.2233161458114676 0.3613387240591179 1  -0.3596307773124037 0.2229390493464862 1  0.3596307773124037 -0.2229390493464862 1  0.390515935037582 0.1636195434767474 1  -0.3904839655777235 -0.1636285837506716 1  0.1636285837506716 -0.3904839655777235 1  -0.1638876663325903 0.3923623890350764 1  0.04384282532259486 -0.07015857662322166 1  -0.08011765448211583 -0.04742160867833382 1  0.3226797123127975 -0.06724769324647022 1  -0.06791911746174686 -0.321011490405228 1  -0.3210114904052281 0.06791911746174685 1  0.06791597125071956 0.3133322485632025 1  0.01300029933573454 -0.3336582341509043 1  -0.3336582341509045 -0.01300029933573453 1  0.3312625026944596 0.01634298279090017 1  -0.01890231217342257 0.3207204227358019 1  0.1593044755135351 0.2337613396768917 1  -0.1672342929047866 -0.132773056500856 1  0.1327730565008564 -0.1672342929047865 1  -0.04057312736015202 0.07214036689862746 1  -0.1216583376241947 0.2551263578533178 1  -0.1373396390671733 0.1663016697769111 1  -0.03904193612438347 -0.1752447455726509 1  -0.1712751339250678 0.03771861162601834 1  0.1644461726501372 0.141775045830479 1  0.1511790319801663 -0.2932104380950028 1  0.2916869062741757 0.1510279462551886 1  -0.2932104380950028 -0.1511790319801662 1  -0.1893770942190298 -0.2599721157064441 1  -0.2635796411850183 0.1942911785362421 1  0.2605218924745163 -0.1907284886484514 1  0.05220398401757594 0.06955290408511863 1  -0.2805626972065101 0.328998778205796 1  0.3302393900494474 0.2819473926997965 1  -0.3318449512303389 -0.2832306080595193 1  0.2832306080595193 -0.3318449512303389 1  0.04832342905271358 0.1877808363511603 1  -0.065696898690541 0.1410851320361489 1  -0.02462254826085986 -0.09310549957314221 1  0.09208911815902721 0.2491550245754104 1  0.4381772089070252 -0.03451370530671609 1  0.03443218218138764 0.4378039052542489 1  -0.03451016151933785 -0.4381646768787607 1  -0.4381646768787607 0.03451016151933783 1  -0.05325027090288098 0.2628866993452785 1  -0.09689651082758409 0.02496399895247979 1  -0.2319704355840505 0.2759202109613136 1  0.2310272246689467 -0.2710730170749428 1  0.2726687263497516 0.2357350096492068 1  -0.2707894989087602 -0.2307430766710918 1  0.0336413547679618 -0.2027252641275629 1  -0.2018898444819838 -0.03359141884633879 1  -0.4063469422152409 0.1729714595109716 1  -0.1729714595109716 -0.4063469422152409 1  0.1703351844603517 0.4017734051354755 1  0.406346942215241 -0.1729714595109716 1  0.1062645597092786 -0.4273938075414044 1  -0.4273938075414044 -0.1062645597092787 1  0.4274699861971816 0.1062430180279853 1  -0.1055593867415405 0.4239082997540863 1  0.2114787942763156 -0.05534444370504381 1  0.2111840717711281 0.02625652447817698 1  -0.01987966435303436 0.1991166824559048 1  0.09743269749791104 0.1212317405257936 1  0.07902357234820491 -0.1415259639585728 1  -0.1527864160148222 -0.07674833379122445 1  -0.2932561548882097 -0.3421707315115853 1  -0.34197627736778 0.2930487078747591 1  0.2933466339041634 0.3427676239539843 1  0.3421707315115853 -0.2932561548882097 1  0.3839561780338137 0.2360638943783668 1  -0.3840708713079414 -0.23615
[...]
<PointData  Vectors="f_15"> 
<DataArray  type="Float64"  Name="f_15"  NumberOfComponents="3" format="ascii">2.9397202740090711e-09 -1.9194296162304269e-09 4.6649155838626475e-10  -1.5376718425319120e-09 -1.1033446125954187e-09 3.7406284721376218e-10  5.6292596019003351e-10 6.1155415140399465e-10 -3.9098939348376000e-10  -1.6551585187980810e-10 -2.6359835788408202e-09 6.3595764795694100e-09  -3.8928513159624488e-08 -8.3849287610261752e-09 -1.6331097183079584e-08  3.5141147997999379e-08 8.3023934850493955e-09 -1.6966873031983277e-08  8.5300204123426341e-09 -3.1070379416577730e-08 -1.1965596772921065e-08  -8.9359718915522235e-09 3.1154559709952806e-08 -1.2348625130372553e-08  3.3983136516737011e-09 8.8202514264707636e-09 2.3647185545236507e-08  -6.8497588886699969e-10 -1.4347031015356109e-09 -3.6092486890135477e-09  -1.6631271695106574e-09 -2.1093331597776222e-09 -2.2959250025890125e-09  1.7528553436450158e-09 2.6005838222046007e-09 4.1236373621295122e-09  -1.2574148465599885e-09 -5.9112277661567965e-10 -2.8099688995896348e-10  -6.4177205489586039e-11 -4.5045177604706862e-10 6.5293588580918167e-10  -7.8835395780795208e-10 -1.0588099545540108e-09 1.4544748501151313e-09  -4.8870660852728273e-09 -5.4562707416416677e-10 6.5696073018253283e-10  -3.0545808954201833e-09 -8.7008984732668822e-10 1.0675188667381077e-09  8.4924029943565528e-11 -2.3194289150923745e-09 1.1376635616700457e-09  -7.2309600420173787e-09 -1.5245233416610492e-09 -2.6152574206999598e-09  4.3648079976361094e-09 -6.4865456726849241e-09 2.0555856819461403e-10  1.4361320513155962e-08 -4.3276254507836648e-09 9.6056313972905981e-09  -5.2726925870249441e-10 5.0738525373563427e-10 2.2672723276353212e-10  -2.9336226670428117e-09 3.4392122605489724e-09 1.6796711812060899e-09  -5.7269483654268967e-11 -3.1449598021556015e-09 5.8631755555293796e-09  -1.4443832142315849e-09 5.3582977645499561e-09 -6.8334237509509214e-10  7.3650796433544442e-11 2.8663437612421664e-09 2.6025185957571675e-09  1.6912926967619917e-09 -3.7098895868623616e-09 8.8309282277547369e-10  -4.8317065534678908e-09 -1.3379306109443513e-08 1.7398919244083191e-08  5.1293125255179415e-09 7.0690916345345909e-09 -2.0739382514053603e-09  -2.1954554648803662e-10 1.7902485267470307e-09 1.5780134945630311e-09  -4.3196539890611823e-11 -5.3006525423784309e-10 3.3643848547176995e-09  2.9122586088767088e-09 1.7287863838460480e-09 9.4604033178405115e-10  1.7064241778904436e-09 7.8751516442146508e-10 -1.6796048103223273e-11  4.6286420427929322e-09 2.0612407344862529e-09 8.9592009526597626e-10  1.5058701594853090e-09 1.1473499612744016e-09 2.0467093558892018e-09  1.9087049804279751e-09 1.3419252458392241e-09 -1.6258550036792326e-09  -8.6127392852430767e-09 -1.2465863471295993e-09 8.2763900011937434e-09  1.8273783860390324e-09 -3.4121997898733801e-09 -5.2511205129425655e-09  -3.4360915820414936e-09 3.4028908108872799e-09 6.0684179883583389e-09  2.2804671771310105e-10 1.0271888819698115e-09 3.6831883336683441e-10  2.9246630008456436e-10 5.8477617988666247e-10 1.6920876210117457e-09  -5.2758916158419765e-11 -5.2099324207709138e-09 2.4662635915798746e-09  2.5984329196264497e-09 -3.6523862193190030e-09 1.6285516955353882e-09  1.9655611198995637e-09 -2.2132913320589769e-09 8.5063069214709789e-10  -3.7277612767939926e-09 6.2090598256883450e-09 -7.4062961700571694e-10  -8.1627278817615002e-10 -3.0846684552211965e-09 2.7666458527797091e-09  3.7524838193973025e-09 4.3784528151258883e-09 6.1018483781560368e-10  5.1750189157547473e-10 9.9152353012323142e-10 -8.7820510363621287e-10  -1.9834453050184295e-09 -1.8251962407603261e-09 2.2634881932772333e-09  -1.3961615774015547e-09 2.4453474598368910e-09 -1.0385983555921618e-09  -5.3881207429583997e-09 -8.3434706087773877e-10 -1.1398118678720806e-09  -9.7459460683600432e-09 -5.9793840405106520e-09 6.8154609155480514e-09  2.8151630780292995e-10 -5.2346908759980394e-09 3.9218854503792741e-09  3.6852310240288420e-09 -1.6181426445368732e-09 1.5587221963683788e-09  2.4043717404303588e-09 -3.4978927791387377e-09 -5.6468635339950357e-10  3.8469792468528479e-09 -1.7189193177092713e-09 -9.6130783060865616e-10  -1.5619113622644837e-09 2.0486991641869874e-09 3.0764541155402208e-09  -2.6795393067278704e-09 1.2351451979632006e-09 2.2884698777929034e-09  2.2747467089156692e-12 7.6920546950164618e-10 -1.7736104861551449e-09  -7.5127239793135340e-10 -9.2022520368254745e-10 -1.8831648813483736e-09  -7.4710797474865124e-10 2.1650421834901897e-09 3.2981834398838997e-09  -7.6653825794434278e-10 -2.4236500144042339e-10 1.5821445599539344e-09  2.7256911594038138e-09 -5.0735993642306433e-09 4.5376002169491766e-10  3.2486396584897949e-10 -3.7974893225920701e-10 1.2001586869698783e-09  -2.7297533780560405e-09 -4.0167595350689680e-09 -6.8856036430061251e-10  -1.1157250553122791e-10 1.2132141136844505e-09 1.1398734157963039e-11  5.7334445875640428e-09 4.6453209439780401e-09 5.2640797978112898e-09  1.0515509274776411e-09 -1.0371587612664510e-09 -2.2408134385630407e-09  3.0329703156605566e-09 2.0898712783569420e-09 -1.9300896696497355e-10  7.2919593624027911e-09 5.1794070601572861e-09 6.0073411352051650e-09  -3.3194962987244548e-09 3.6423283436003663e-09 4.1995216307052901e-10  -1.0406457367652380e-09 -3.1061726588657494e-09 2.8519496527743110e-09  3.7314868945366499e-10 1.9286694377450938e-09 9.0395848941815645e-10  -6.5111088860247946e-09 4.4179363725193832e-09 -2.2031268667858933e-09  -1.6871114093912851e-09 -1.2834089498469448e-09 3.6031979456485588e-09  -1.5365671497026798e-09 2.3923757387129661e-09 9.3869223366052050e-10  -6.1790174854972384e-09 2.2104132624482520e-09 -2.1253183043156822e-09  3.0977637873997898e-10 -6.6185032904119130e-09 -1.6128604324611698e-10  4.6393324558677938e-09 -8.2106214762468536e-09 6.0590363101039366e-09  3.3239176622802852e-09 4.4289035338400226e-10 1.8489212936123652e-09  -1.9712898703556157e-08 1.0178393894746366e-08 3.8924115314875321e-10  3.3929176626571161e-09 -1.3369839984369069e-09 -2.1409478882887234e-09  4.3959463587102273e-10 -2.2404234130507787e-10 -1.6426156631921458e-09  6.7178027184269861e-11 -5.0409104473642931e-10 -3.4634826427182176e-10  -6.0921392214688999e-11 -3.3816845308116848e-10 1.7264076960200531e-10  -9.4154559399123013e-10 -3.9011154688784212e-10 7.6518798528648908e-11  6.2195228604928755e-10 9.6793125414432725e-10 -1.2834190498197902e-10  -3.1376277260713721e-11 -9.3163609464488348e-10 -1.4510004381693471e-10  5.4383964118388540e-10 6.0490757140433830e-10 5.1619470681843482e-11  3.2387424931828478e-10 -6.0932815321834483e-10 7.2153894364352019e-10  -7.5279245691183300e-10 -5.7436932353850673e-10 -2.5830459525834212e-09  3.2452471310424990e-09 -4.5291007476492737e-09 2.2628867620057292e-09  -1.5035263167488979e-08 -1.5943564359152816e-08 4.7226740111863950e-09  8.7665746734885010e-10 -6.2707929513782425e-10 -2.3644492974035601e-09  -4.2809707738245222e-10 -3.9975880644139724e-10 -1.4322329508432718e-09  -7.6041915060601421e-10 -3.4403951516708960e-10 -1.0988230408921242e-10  -1.0899342474832731e-10 -5.7324120991280357e-10 1.3181485748942314e-10  9.7275358909778092e-10 9.0396766353882636e-10 -5.5064102438418729e-10  -1.1874403500586311e-09 -1.4927255176759194e-10 -9.4818381144868374e-10  1.7522151307848101e-09 2.9777490326004102e-10 -3.0666481951999492e-10  -5.6504991848610550e-10 -7.2276080189360847e-10 9.3377202411226790e-10  8.1011423103626978e-10 -9.7941178714776559e-10 3.6665132371904804e-10  1.3694498838080250e-10 -7.6149005874553943e-10 -3.2371052606898076e-09  5.7045504595683938e-10 5.4033539926493348e-09 2.3413354063326802e-10  1.6571850792912955e-08 -7.3145693127969023e-09 3.1724936490974748e-09  5.5844730042481550e-10 -2.6336736268767140e-09 -4.9009188637211216e-09  -1.2389060347434096e-09 1.8431973590322072e-09 -4.0302353097620995e-10  5.5378646418477969e-11 1.6195929744898979e-10 7.4510326500817886e-10  -9.1488641118381681e-10 -4.5396224349583371e-10 -2.2647920764956608e-10  6.1310524683109910e-10 -1.9438736242139354e-09 -2.9466965687494413e-10  -7.2348495321810212e-10 -1.7511949360267950e-09 2.7548124213910329e-10  -6.8416904400649178e-10 1.3245753313641849e-09 1.8940899742220211e-10  -1.2869189150243290e-10 -3.3536596322475238e-11 -6.3344807549501748e-10  -3.4388611592295846e-10 3.9248750973216479e-10 6.3712023973904543e-11  -2.8328712222525244e-10 3.7516577861509162e-11 -4.4305270591190204e-10  -1.4325168138758011e-09 -2.2277262333740384e-10 4.9674919226916402e-10  2.0965126644619651e-08 2.2141317303164009e-08 -5.7624210224307195e-09  -1.5144466754397903e-09 -4.9342299207821480e-10 -3.0731365290433512e-09  7.5975334751182109e-10 -6.5180706260675804e-10 -1.1838716109802085e-10  3.3069545879639322e-10 8.1473185470809053e-11 3.4924943859134905e-10  8.7160557053307372e-10 1.7458695031319966e-10 -1.5726514238198189e-10  -1.7538098918650237e-09 1.6483380665716596e-09 4.2741059456882723e-10  -1.2654699441462694e-09 -7.6508818762875638e-10 5.1188230252219374e-10  1.3514091400044850e-10 3.3634222642950312e-09 1.6251924606324067e-09  1.6327977745978104e-09 5.2642634656197545e-10 -5.3258693924250887e-10  -1.6686215168295742e-10 -6.0066439309418063e-10 -1.3599593310314670e-09  5.2367316526589850e-10 4.5094293786634599e-10 1.4589958324038750e-09  -1.1979967258690310e-09 -3.2048261146550809e-10 -1.6104955496010078e-09  -3.8192877857085446e-11 -1.0902900528823241e-10 -6.1441388382934640e-11  -1.7011777021227884e-10 6.6662727486089698e-11 -2.6995591209583594e-10  5.6134902624144740e-11 1.1232939347505318e-10 -1.7315553867715168e-10  8.6205300868206968e-11 1.3728113385604546e-10 -1.2303669899721430e-10  -1.5104298202426385e-10 1.6433342600019638e-11 -1.4779960354957862e-10  2.1025769250999967e-10 -2.9348773248161438e-10 -1.3315370771654244e-10  3.0234407209145309e-11 2.4822764535981107e-11 -6.6352642909991650e-11  6.1255043255445256e-11 3.9721936899448261e-11 -6.9390198761254877e-11  2.1257703134784320e-11 1.1342688479161292e-10 -4.3985062852547110e-10  5.2504990814926893e-11 -1.9035708345541967e-10 -4.6388856719822778e-10  1.6505797129553180e-10 -1.7734125166616012e-10 -4.4161878069667721e-11  2.2766194312851084e-11 2.3980294332773522e-11 -1.8999433807432163e-10  -4.6888803156834730e-11 -5.1719298705691606e-11 -2.0326092400091721e-10  -1.4072537926761688e-10 1.3625777854234490e-10 -1.1994721542730805e-10  -1.5910693434654153e-10 1.0789142333224569e-09 2.3914687316647211e-10  6.6089954961523365e-10 2.7960857432709206e-11 4.6830536991612422e-11  -3.2187739454826504e-10 2.3133735668025390e-10 -2.8772043951173256e-10  -9.8398762066599323e-11 -7.1653939530532010e-10 5.4834537172197556e-11  -4.4027195588342635e-10 -1.8586131156877671e-10 -1.1168674325997000e-10  1.0918032920430016e-09 2.6328368869550468e-10 1.6019231919485218e-10  9.9478082189822958e-12 6.0032246846146835e-10 -2.3369104150740719e-10  1.1721499895453254e-09 1.8736243999711812e-09 9.5525970017753734e-10  2.3442997325733655e-10 2.7228432714531705e-11 1.0756068701486891e-10  1.6299313717032540e-10 2.5828888169660037e-11 8.4823955162937212e-10  -1.6799875704780827e-09 -1.2784532333990779e-09 6.0253693861912442e-10  -1.2343837203090572e-10 -4.7212411639927812e-12 -1.7014507051804379e-10  9.1383764361558164e-11 -1.8957650147967180e-10 -1.8364563850992012e-10  -3.6300196245346540e-10 -7.7555367152661684e-11 6.8581698624161030e-11  2.2497263840759571e-10 2.2550940847277234e-10 -3.9953968338601800e-11  3.8765056241715665e-10 1.0419028231410130e-10 -1.1736539537709452e-10  4.4082116553621487e-10 -8.6649689230607393e-10 -5.6820007406995087e-11  -7.0557201303309288e-10 -1.2259816527353683e-09 -1.5322925253526276e-09  -8.3884891752072278e-10 5.5096544897080814e-10 4.5020467370663409e-10  6.0546630707883119e-11 7.0262394922369215e-10 -1.0883355543512269e-09  -2.4753728303235281e-10 5.0384633417920769e-10 -6.5875635919275695e-10  -2.5455004671212791e-10 -7.2935895625984855e-10 -6.8039952026565069e-10  -1.3491598778592758e-09 -3.4232924178191395e-10 -7.6214151809183222e-10  2.7040963727840113e-11 4.9075078004322215e-11 -1.4239851840310432e-10  -2.2433024901946793e-10 1.0747387628433304e-10 -1.3469422231900352e-10  -2.7937109413661184e-10 9.4966644950083170e-11 -1.9510709505632195e-10  1.9046420649674894e-10 -6.2484179116046385e-11 -7.4024807276321024e-11  1.0366147250929162e-10 -4.0406229998603177e-11 -2.0607260587342731e-10  -1.2011072654182143e-10 1.6136314579847098e-10 -8.4526421302902024e-11  5.2570718571303845e-11 -2.0445327755700437e-12 -1.9679673831486480e-10  1.0691997082884348e-10 -1.0969180703066065e-10 -4.2688953358250017e-11  -1.6890743485641675e-09 -3.6678836264341176e-09 7.9657350264226836e-10  1.7115884481726995e-09 1.3300405139348217e-09 -9.9059528697584855e-10  4.3070459480422842e-09 -2.9264051479261694e-09 8.2127302954277920e-11  -3.1473086968400910e-09 3.0080513376517934e-09 -5.7860184178057107e-10  -3.3709465024670942e-09 -3.3984838110118886e-09 1.2428080122580364e-09  4.1393341999287968e-09 3.7302816925373202e-09 2.5228503153656892e-09  1.2630154340591510e-09 4.0236227974263647e-09 6.9593469877089320e-10  1.1519150427149374e-09 -2.3178408970254604e-09 3.4784714888135983e-10  8.0179626235337646e-11 1.3221912010776457e-10 -2.2146785230206458e-10  -1.1208555343209294e-09 1.6263900100977571e-09 4.9454772719430504e-10  1.3266391455868746e-09 -2.0925292685215721e-09 3.1089136282138450e-10  -7.3413604274852648e-11 -3.0855924318778347e-10 -9.7550198183025738e-10  -6.8008688708836992e-10 7.8004938431619539e-10 4.4800413783769472e-11  -1.4439362854750430e-09 -3.6649538290429971e-10 1.0857324113437149e-09  1.4022236126482203e-09 -1.5529775432410945e-10 -5.9409502217173353e-10  -6.2593748673173986e-11 1.3446254954210550e-09 5.6261580116953738e-11  4.5690947087262296e-10 -1.2521964994934300e-09 1.2776502642118063e-09  -1.2897494381941968e-10 1.9255459669797848e-10 1.9604889070552714e-10  2.1968591271230985e-10 3.0760769279552425e-11 -1.5135844203036534e-10  -1.9195661743215297e-10 -1.0638441021217396e-11 -1.9812920813521999e-10  5.9619477536793080e-11 -1.9703883265804686e-10 -3.3561616499320844e-10  5.5305628770040581e-10 4.3499954237504090e-10 1.8963561397877977e-11  1.4477930227110748e-10 -3.3277409954977567e-10 -6.5771079349375518e-11  -4.9697494160262503e-11 -9.7288300842644310e-11 -5.3496048204278472e-10  3.8182343775924320e-11 -1.8347310207802829e-10 -3.7124602183570309e-10  -4.8845252411754385e-10 4.2337779897871108e-10 -1.3261529889140459e-10  -1.6065394009483319e-10 -1.7213341814794487e-10 -1.3213590754873101e-10  2.7413363899868018e-12 -7.3351939097593546e-11 -1.6395776933305530e-10  9.4976935609514548e-11 1.3656118913188847e-10 4.5100365545224231e-11  1.1769348704243446e-10 -3.1317908100217097e-10 -6.7228771502846136e-11  -1.6119564039667031e-10 -1.3361681826950241e-10 8.5280024564967288e-12  1.3346270772394345e-11 -7.8008620962867975e-11 -7.9633171615856622e-11  -4.5348601236068336e-11 1.1107399740257010e-10 -1.0751375319597292e-10  -1.4148983468025089e-10 9.0222559931754721e-11 -2.6852478057512835e-10  1.1535127271820508e-10 5.5128443354822556e-11 -3.4314158929368026e-10  2.6202280119053668e-11 1.5597822113268529e-10 -5.4636549787171867e-11  1.0559821533937788e-10 -4.5201968194729398e-10 1.2811362017597480e-10  1.1556369800624776e-11 3.4097324158110825e-10 -2.0924644426273334e-10  -3.9623066013758276e-10 -2.9703231276143531e-10 -2.8049694032512606e-10  1.2246287411920030e-11 -1.2203363340427727e-10 -1.3594245220217428e-10  1.2874275328837612e-10 1.1705455638673645e-10 -9.1981849079144208e-12  -3.4296484988761797e-10 5.7818598101330335e-11 -7.6757995417283708e-11  7.4144633014532162e-11 -2.5933044565157910e-10 -1.7116881412196668e-10  6.7577365964989074e-10 -1.6120289057233968e-09 1.0934655652442579e-09  -6.5036278185996068e-10 -2.6002268167081075e-09 2.6180714193922484e-09  3.4883461025870827e-10 1.3285510138133621e-09 1.0385730861324939e-09  -4.8612871960535962e-10 2.4799574252121773e-10 8.3816277227496264e-10  1.5296840480516287e-10 8.9276225264949956e-11 -4.0152354435390158e-10  -1.1745754695523393e-10 -9.8908753853664100e-11 -8.3538280916996122e-11  6.4277168656140862e-11 4.5207917588124725e-13 -2.4100332240110731e-10  2.0923437381823113e-10 1.1236610425622092e-10 -1.2348696196971728e-10  9.2562704224350197e-09 1.2568681810471205e-09 -7.0949634979789041e-09  -8.1461752366820547e-10 4.2187770955614453e-09 -4.8461019885973130e-09  1.4507401419261162e-09 -3.9338211127965824e-09 -5.6098434122129884e-09  -6.2445632515573011e-09 2.5424414073622025e-09 -6.5666769306683653e-09  -4.7586050106662583e-11 -7.5518134640836915e-11 -1.2214310914115409e-10  1.1801274001244865e-10 -2.6869856045025865e-11 -1.6647467367286950e-10  -2.5614410958327666e-10 2.5214680222289173e-11 -3.0947238528866571e-10  -2.5836013706156715e-10 2.3472625733925673e-11 -1.1508222020741676e-10  -7.3867492357966442e-11 -4.8967065716563417e-10 -3.5569305649802238e-10  -1.0936749403349963e-12 -3.7075354734651211e-10 -5.9708379156380149e-10  -1.2858363030074356e-10 -4.8668938496963306e-11 -1.2284094544201333e-10  1.4331394460550951e-11 1.0049003614784211e-10 -1.1206090831117775e-10  1.6577511316418148e-09 -1.0549197817982745e-09 1.9374202346663220e-09  -2.0587585899518392e-09 -7.8759618746046583e-11 -3.5729078860806765e-09  -2.1575066469133261e-10 -4.3650663723497804e-10 -8.8600961865374782e-10  3.1474719568624252e-10 6.3831126110331053e-10 -1.2417031378804389e-09  1.7101428328403329e-11 1.3121825363430836e-09 -7.8961853224580258e-10  1.4754535992018350e-09 1.7745881980706831e-09 8.6769805446010483e-10  -2.0442976483605377e-09 1.8397784238477572e-09 -1.1177006022035975e-09  -1.0426269766901035e-09 -1.3780951402201294e-09 -6.3453607678805466e-10  1.1875641010995259e-10 3.2655747117537211e-10 -9.8398975731943483e-11  1.1765902796734593e-10 1.4106383537555809e-12 -9.5791832755600859e-11  1.4571820378895514e-10 3.0594681563763171e-11 -1.7605546256899282e-10  1.1077785724934040e-10 1.9629045853434572e-10 -1.7229825934847803e-10  -1.4910021903720946e-10 2.0610634509902733e-10 -3.2929413244123653e-10  -7.3660640221939372e-11 -2.1524557628181742e-10 7.7684588948335775e-11  -5.9866302652852856e-10 2.4137952456869825e-09 2.3472773434174569e-11  3.3520900692502731e-09 1.9608315621734961e-09 -4.7332515169724368e-10  2.4705988590009557e-09 -5.1752314008447269e-09 2.2369826523980109e-09  -1.6495762906169721e-09 1.4561137591296131e-10 5.5503524130335709e-11  5.5375899780384886e-10 1.3029370791998848e-09 5.2873131401715502e-10  -2.2161650122761518e-10 -2.1833202672802285e-09 -6.3006406022682679e-11  7.1410363505079282e-10 -3.7624173928364286e-10 7.9021605617689199e-10  -8.9354617191423954e-10 1.4429536056935053e-10 6.2020102643615098e-10  1.0635125861543961e-10 -3.1629411356205593e-10 -2.5463464105497175e-10  2.0367435041892862e-10 3.7743142475368350e-11 -5.3264621736767713e-10  -1.1288169937697021e-10 3.1592363915507705e-10 -1.6251881509994882e-10  6.7905763268354184e-11 1.0128825003808649e-10 -4.2023636112389403e-10  7.3515924316722213e-12 -8.6728838763191079e-11 -1.4432668921756326e-10  -1.3036290199757275e-10 1.6278334608302819e-12 -1.2806381471302350e-10  -3.1776740303672497e-10 1.2946711320794059e-10 -1.2866700011070187e-10  3.8605286058820337e-11 1.5357548206900076e-10 -2.3554528081727796e-10  9.1553275489502203e-11 -2.7368670821666667e-10 -2.2568158082437021e-10  1.6083627617767052e-10 4.5196286351443279e-10 -2.2106590604506099e-10  1.0218111056520225e-10 1.0769684194804392e-10 -4.3269375760653349e-10  -1.2416559101147844e-10 5.9112497271685382e-11 -3.5666542992068758e-10  4.5685537588804839e-12 1.0732595024792009e-10 -9.8681770444987746e-11  1.4645186284227012e-10 -1.4847338044171687e-10 -8.4236770287359748e-11  2.0101915302639111e-11 -3.4942722635247619e-11 1.1795133191905219e-11  5.6193902505961359e-10 2.4868669536433941e-10 -1.9410425476145625e-10  -2.3243459847141522e-10 6.9309614679173393e-11 -3.4175961556564829e-10  1.6767369766314295e-10 4.0247505055891176e-11 -9.6972498136782156e-11  -1.4850883773068969e-10 -3.0424677048972080e-11 9.3991487948546968e-12  1.4908016010606382e-10 4.7946615412917121e-11 -1.7936662201814645e-10  2.