<?xml version="1.0"?>
<VTKFile type="UnstructuredGrid"  version="0.1"  >
<UnstructuredGrid>
<Piece  NumberOfPoints="1657" NumberOfCells="7161">
<Points>
<DataArray  type="Float64"  NumberOfComponents="3"  format="ascii">0.5 0 0  -0.5 0 0  0 0.5 0  0 -0.5 0  0.5 0 1  -0.5 0 1  0 0.5 1  0 -0.5 1  -0.07821723251988573 -0.4938441702976052 0  -0.1545084971870769 -0.4755282581477057 0  -0.2269952498692269 -0.4455032620944624 0  -0.2938926261455928 -0.4045084971879415 0  -0.353553390592598 -0.3535533905939495 0  -0.4045084971870234 -0.2938926261468564 0  -0.4455032620939436 -0.226995249870245 0  -0.4755282581474761 -0.1545084971877837 0  -0.4938441702975501 -0.07821723252023399 0  -0.4938441702976052 0.07821723251988573 0  -0.4755282581477057 0.1545084971870769 0  -0.4455032620944624 0.2269952498692269 0  -0.4045084971879415 0.2938926261455928 0  -0.3535533905939495 0.353553390592598 0  -0.2938926261468564 0.4045084971870234 0  -0.226995249870245 0.4455032620939436 0  -0.1545084971877837 0.4755282581474761 0  -0.07821723252023399 0.4938441702975501 0  0.07821723251988573 0.4938441702976052 0  0.1545084971870769 0.4755282581477057 0  0.2269952498692269 0.4455032620944624 0  0.2938926261455928 0.4045084971879415 0  0.353553390592598 0.3535533905939495 0  0.4045084971870234 0.2938926261468564 0  0.4455032620939436 0.226995249870245 0  0.4755282581474761 0.1545084971877837 0  0.4938441702975501 0.07821723252023399 0  0.4938441702976052 -0.07821723251988573 0  0.4755282581477057 -0.1545084971870769 0  0.4455032620944624 -0.2269952498692269 0  0.4045084971879415 -0.2938926261455928 0  0.3535533905939495 -0.353553390592598 0  0.2938926261468564 -0.4045084971870234 0  0.226995249870245 -0.4455032620939436 0  0.1545084971877837 -0.4755282581474761 0  0.07821723252023399 -0.4938441702975501 0  -0.07821723251988573 -0.4938441702976052 1  -0.1545084971870769 -0.4755282581477057 1  -0.2269952498692269 -0.4455032620944624 1  -0.2938926261455928 -0.4045084971879415 1  -0.353553390592598 -0.3535533905939495 1  -0.4045084971870234 -0.2938926261468564 1  -0.4455032620939436 -0.226995249870245 1  -0.4755282581474761 -0.1545084971877837 1  -0.4938441702975501 -0.07821723252023399 1  -0.4938441702976052 0.07821723251988573 1  -0.4755282581477057 0.1545084971870769 1  -0.4455032620944624 0.2269952498692269 1  -0.4045084971879415 0.2938926261455928 1  -0.3535533905939495 0.353553390592598 1  -0.2938926261468564 0.4045084971870234 1  -0.226995249870245 0.4455032620939436 1  -0.1545084971877837 0.4755282581474761 1  -0.07821723252023399 0.4938441702975501 1  0.07821723251988573 0.4938441702976052 1  0.1545084971870769 0.4755282581477057 1  0.2269952498692269 0.4455032620944624 1  0.2938926261455928 0.4045084971879415 1  0.353553390592598 0.3535533905939495 1  0.4045084971870234 0.2938926261468564 1  0.4455032620939436 0.226995249870245 1  0.4755282581474761 0.1545084971877837 1  0.4938441702975501 0.07821723252023399 1  0.4938441702976052 -0.07821723251988573 1  0.4755282581477057 -0.1545084971870769 1  0.4455032620944624 -0.2269952498692269 1  0.4045084971879415 -0.2938926261455928 1  0.3535533905939495 -0.353553390592598 1  0.2938926261468564 -0.4045084971870234 1  0.226995249870245 -0.4455032620939436 1  0.1545084971877837 -0.4755282581474761 1  0.07821723252023399 -0.4938441702975501 1  0 -0.5 0.9230769230766027  0 -0.5 0.8461538461535256  0 -0.5 0.7692307692309824  0 -0.5 0.6923076923084392  0 -0.5 0.6153846153858957  0 -0.5 0.5384615384633524  0 -0.5 0.4615384615403821  0 -0.5 0.3846153846169851  0 -0.5 0.307692307693588  0 -0.5 0.230769230770191  0 -0.5 0.1538461538467939  0 -0.5 0.07692307692339706  0.5 0 0.9230769230766027  0.5 0 0.8461538461535256  0.5 0 0.7692307692309824  0.5 0 0.6923076923084392  0.5 0 0.6153846153858957  0.5 0 0.5384615384633524  0.5 0 0.4615384615403821  0.5 0 0.3846153846169851  0.5 0 0.307692307693588  0.5 0 0.230769230770191  0.5 0 0.1538461538467939  0.5 0 0.07692307692339706  0 0.5 0.9230769230766027  0 0.5 0.8461538461535256  0 0.5 0.7692307692309824  0 0.5 0.6923076923084392  0 0.5 0.6153846153858957  0 0.5 0.5384615384633524  0 0.5 0.4615384615403821  0 0.5 0.3846153846169851  0 0.5 0.307692307693588  0 0.5 0.230769230770191  0 0.5 0.1538461538467939  0 0.5 0.07692307692339706  -0.5 0 0.9230769230766027  -0.5 0 0.8461538461535256  -0.5 0 0.7692307692309824  -0.5 0 0.6923076923084392  -0.5 0 0.6153846153858957  -0.5 0 0.5384615384633524  -0.5 0 0.4615384615403821  -0.5 0 0.3846153846169851  -0.5 0 0.307692307693588  -0.5 0 0.230769230770191  -0.5 0 0.1538461538467939  -0.5 0 0.07692307692339706  -0.007594136642501654 -0.004045741957735315 1  0.2671352096201229 -0.02102399694998625 1  0.01764383341409913 0.2536132760584658 1  -0.02666396035831023 -0.2531221455965387 1  -0.2531221455965389 0.02666396035831023 1  -0.2215292578081779 -0.1892038603591107 1  0.1892038603591108 -0.2215292578081779 1  -0.1892038603591107 0.2215292578081779 1  0.2215292578081779 0.1892038603591109 1  0.1385185436720213 -0.09057822738852793 1  0.1444278228516107 0.06230098297709098 1  -0.1036020399044679 -0.1332668134328397 1  -0.1236898625509597 0.09154779714398348 1  0.3276138866914048 -0.1493452764976681 1  -0.1493452764976681 -0.3276138866914048 1  -0.3276138866914049 0.1493452764976682 1  0.1479353928765055 0.322183943053354 1  -0.09663024938828488 0.3427470693423371 1  0.350382753551459 0.09518682362295226 1  -0.3499441325621996 -0.09531085618119063 1  0.09531085618119059 -0.3499441325621996 1  0.3758029057029099 -0.02957633010838067 1  0.02957633010838064 0.3758029057029099 1  -0.02957633010838066 -0.37580290570291 1  -0.37580290570291 0.02957633010838064 1  0.008167023249524813 0.1287506671888682 1  -0.1411725171320288 -0.01707001611904115 1  0.01869295614714423 -0.1422154233579206 1  0.1114116068465904 0.1842585037493884 1  -0.2598550650020522 -0.294657539154362 1  -0.2946575391543621 0.2598550650020524 1  0.2601808590994745 0.2960858335428702 1  0.2946575391543622 -0.2598550650020522 1  0.3322366357565687 0.2103437406355584 1  -0.2107023737883974 0.3346675180840228 1  0.2103437406355586 -0.3322366357565688 1  -0.3322366357565688 -0.2103437406355586 1  -0.0812534232444079 0.2029318716322168 1  0.0963670891699373 -0.2227021471835499 1  -0.22270214718355 -0.09636708916993723 1  0.2190419849291031 -0.119559722020513 1  -0.1087485665851406 -0.2146437707845258 1  -0.203317076811764 0.1224557072025287 1  0.2273152369504595 0.09523047733096632 1  0.1600008575320791 -0.01229387630752224 1  0.4050885445567445 -0.09912204850336188 1  -0.4050885445567446 0.09912204850336188 1  0.09892063655748151 0.4043128383227373 1  -0.0991220485033619 -0.4050885445567445 1  -0.03455328827880966 0.415059611947992 1  0.03436480353493904 -0.4160877638365437 1  -0.4160877638365438 -0.03436480353493905 1  0.4161504239778664 0.03434708459804784 1  0.08365969031159125 0.002330153091588407 1  -0.2229390493464861 -0.3596307773124036 1  0.2233161458114676 0.3613387240591179 1  -0.3596307773124037 0.2229390493464862 1  0.3596307773124037 -0.2229390493464862 1  0.390515935037582 0.1636195434767474 1  -0.3904839655777235 -0.1636285837506716 1  0.1636285837506716 -0.3904839655777235 1  -0.1638876663325903 0.3923623890350764 1  0.04384282532259486 -0.07015857662322166 1  -0.08011765448211583 -0.04742160867833382 1  0.3226797123127975 -0.06724769324647022 1  -0.06791911746174686 -0.321011490405228 1  -0.3210114904052281 0.06791911746174685 1  0.06791597125071956 0.3133322485632025 1  0.01300029933573454 -0.3336582341509043 1  -0.3336582341509045 -0.01300029933573453 1  0.3312625026944596 0.01634298279090017 1  -0.01890231217342257 0.3207204227358019 1  0.1593044755135351 0.2337613396768917 1  -0.1672342929047866 -0.132773056500856 1  0.1327730565008564 -0.1672342929047865 1  -0.04057312736015202 0.07214036689862746 1  -0.1216583376241947 0.2551263578533178 1  -0.1373396390671733 0.1663016697769111 1  -0.03904193612438347 -0.1752447455726509 1  -0.1712751339250678 0.03771861162601834 1  0.1644461726501372 0.141775045830479 1  0.1511790319801663 -0.2932104380950028 1  0.2916869062741757 0.1510279462551886 1  -0.2932104380950028 -0.1511790319801662 1  -0.1893770942190298 -0.2599721157064441 1  -0.2635796411850183 0.1942911785362421 1  0.2605218924745163 -0.1907284886484514 1  0.05220398401757594 0.06955290408511863 1  -0.2805626972065101 0.328998778205796 1  0.3302393900494474 0.2819473926997965 1  -0.3318449512303389 -0.2832306080595193 1  0.2832306080595193 -0.3318449512303389 1  0.04832342905271358 0.1877808363511603 1  -0.065696898690541 0.1410851320361489 1  -0.02462254826085986 -0.09310549957314221 1  0.09208911815902721 0.2491550245754104 1  0.4381772089070252 -0.03451370530671609 1  0.03443218218138764 0.4378039052542489 1  -0.03451016151933785 -0.4381646768787607 1  -0.4381646768787607 0.03451016151933783 1  -0.05325027090288098 0.2628866993452785 1  -0.09689651082758409 0.02496399895247979 1  -0.2319704355840505 0.2759202109613136 1  0.2310272246689467 -0.2710730170749428 1  0.2726687263497516 0.2357350096492068 1  -0.2707894989087602 -0.2307430766710918 1  0.0336413547679618 -0.2027252641275629 1  -0.2018898444819838 -0.03359141884633879 1  -0.4063469422152409 0.1729714595109716 1  -0.1729714595109716 -0.4063469422152409 1  0.1703351844603517 0.4017734051354755 1  0.406346942215241 -0.1729714595109716 1  0.1062645597092786 -0.4273938075414044 1  -0.4273938075414044 -0.1062645597092787 1  0.4274699861971816 0.1062430180279853 1  -0.1055593867415405 0.4239082997540863 1  0.2114787942763156 -0.05534444370504381 1  0.2111840717711281 0.02625652447817698 1  -0.01987966435303436 0.1991166824559048 1  0.09743269749791104 0.1212317405257936 1  0.07902357234820491 -0.1415259639585728 1  -0.1527864160148222 -0.07674833379122445 1  -0.2932561548882097 -0.3421707315115853 1  -0.34197627736778 0.2930487078747591 1  0.2933466339041634 0.3427676239539843 1  0.3421707315115853 -0.2932561548882097 1  0.3839561780338137 0.2360638943783668 1  -0.3840708713079414 -0.23615
[...]
<PointData  Vectors="f_15"> 
<DataArray  type="Float64"  Name="f_15"  NumberOfComponents="3" format="ascii">-1.6763249442652562e-08 -1.7049053752590287e-09 -1.0145438051908821e-08  1.8211595618061331e-08 7.1589868892448543e-09 -1.2419060732747438e-08  5.7398736840192510e-09 -1.3590701971382209e-08 -1.1315746327519525e-08  -4.3107312046049469e-10 1.9693740315130420e-08 -2.2346444891124519e-08  -5.8987245925381761e-08 -8.6346084625098653e-09 -2.4089573330706080e-08  4.7850639906282714e-08 7.2768285526493366e-09 -1.7584015457492049e-08  3.0203675398124391e-09 -5.1867641160276692e-08 -3.5357396567862605e-08  -5.4061212899828903e-09 5.3818813270133137e-08 -3.6735584603343016e-08  2.2548683906607405e-09 -2.5928790060730471e-09 -5.2669740742197900e-08  3.0871142784589008e-10 1.7899921356236534e-08 -7.2182653517828595e-09  7.1893553962291130e-10 7.5830569486294824e-09 -1.4239712078774848e-08  2.8421303515646048e-09 4.8728432740634596e-09 -1.1074748776015758e-08  1.0843796573878499e-08 5.2703910075080603e-09 -6.2786286575590513e-09  1.0145316152424196e-09 1.7224874782905606e-09 -1.6058275460534823e-08  3.0000434917632566e-09 3.6860944435002408e-09 -1.0357619947976828e-08  1.9598040898546315e-08 1.7041202013578854e-09 -1.2461830940534970e-08  1.6731129201134400e-08 4.1954479123879546e-09 -1.1152800146908507e-08  9.1254683458181092e-09 3.3073421299973932e-09 -9.4812152716762173e-09  2.4674116239538754e-08 -1.2792532367766546e-08 1.3844885504517688e-09  5.9378795536019808e-09 2.0465660168260851e-10 -1.3627411471559999e-08  -2.6301618104526076e-10 -2.9339417036205348e-09 -1.5396091073865221e-08  6.6326402935926450e-09 -1.2068405663290690e-08 -1.1167621865672276e-08  6.2570351139133018e-09 -1.0383833245013412e-08 -1.3537755451242099e-08  1.9378695107503452e-09 -9.3664127659593276e-09 -1.4300855965234564e-08  4.8657314327731183e-09 -1.6789254264207583e-08 -1.7618352319019990e-08  8.4819064252698030e-09 -2.3357817076662955e-08 -8.1508466065218216e-09  -2.9576005299348801e-09 -1.9729223653623969e-09 -9.1726419058101982e-09  -4.6347835101539914e-09 2.4841449784810023e-09 -2.3487349065182973e-08  -1.0697286167673816e-08 -1.5081753139774104e-08 -7.7327356595397166e-09  -5.5159363396198213e-09 -1.7573820692562505e-08 -4.9985441363020157e-09  -7.3162875281259058e-09 -2.9804460607361153e-09 -1.2887287214288472e-08  -8.2318368052616940e-09 -2.9758828380180704e-09 -1.2465399507665256e-08  -1.2314994294851442e-08 -8.1445568504185297e-10 -1.2266643649893604e-08  -1.6248652666436729e-08 -6.7323079473736569e-09 -1.5809589641864209e-08  -2.0762228323860871e-08 -8.5312572123994354e-09 -8.0440137259717740e-09  -1.2258371897716006e-08 5.9217980094982769e-09 -4.9225355071244649e-09  -5.5151973150202331e-10 7.4999093828862521e-10 -1.5250904245168291e-08  -7.8101278950323912e-09 6.0455970764151118e-09 -3.8859475388770279e-09  -6.4358338825096544e-09 1.3434319465655188e-10 -1.1448496523245409e-08  -7.0929585984726915e-09 4.7201401529824223e-09 -6.7165902993162657e-09  1.4965734144519128e-09 3.9658949976038548e-09 -9.3308331615404615e-09  9.2684686236160047e-10 2.7888532747539745e-08 -1.4594329321184601e-08  -1.1886484170805436e-08 1.9029047566240665e-08 -1.4047041289056986e-08  -6.8132598424061847e-09 1.3551766822255890e-08 -1.0620648714647729e-08  -9.3598066908253018e-09 -1.0912657671871449e-08 -1.5130250086565135e-09  -1.7012021849194423e-09 -7.4507009936223802e-09 -1.0675504965551542e-08  -1.3913704813817787e-08 -1.9554710773823339e-08 -4.3003094351025837e-09  -4.4806008057962008e-10 -1.5774244204834075e-08 -7.4471321296233316e-09  -2.8083279339765731e-10 -1.0047029964439727e-09 -8.5867328578272456e-09  3.1507531312001991e-10 -2.7798377641420993e-10 -6.9660896736798787e-09  -1.4437181659282214e-09 -1.4054682601351133e-09 -5.1308013068950625e-09  6.4156518607679337e-10 2.1834010364700777e-09 -2.5595359101784835e-09  5.1567832865924634e-09 -3.5763261997802778e-10 -9.6695874503318118e-09  -1.3670361116828552e-09 8.2449234340515028e-09 -7.4041878885614297e-09  -1.6968341673374702e-08 7.3250633659430309e-09 -4.2441922794242635e-09  -1.2822945380455865e-08 6.6247888109239939e-09 -6.4780063792866163e-09  -7.6560304544997234e-09 -3.9002851326672269e-10 -9.6803313674247567e-09  -2.0216485532981096e-09 3.4916728368096475e-09 -6.6268243214093771e-09  1.6151938994156941e-10 1.6527921427622212e-09 -7.1807532519886645e-09  -1.5154839435568258e-09 6.4491966063859420e-09 -6.2082914173151628e-09  -3.7558817313078558e-09 6.3911086954654512e-09 -2.0356581473981805e-09  -6.6029792906972246e-10 -1.4447524665847534e-08 -1.3239821238087367e-08  9.1216466578524698e-09 1.2336467178231949e-08 3.4793296866167212e-09  1.1259668500847329e-09 3.8198240976558229e-09 -9.9305166120916959e-09  1.2533601696853865e-08 1.9871774100830926e-08 -3.1350139794161179e-09  -1.4676940998025236e-09 1.1702074394025834e-08 -1.2083644838559704e-08  2.9821551911347196e-09 2.7350297417316946e-09 -7.0237671747569714e-09  3.4733892080857082e-09 1.7865219063929288e-09 -9.3021725780241917e-09  7.3324756896255688e-09 4.0631547807454070e-09 -3.6904358069632455e-09  3.6915228838336522e-09 1.6228840899274909e-09 -3.6208496653017282e-09  -1.0153285140231946e-08 3.6543633861067109e-09 -1.2817155883757478e-08  6.1808822332483894e-10 -5.4012000120621569e-09 -4.3664082751397198e-09  5.0572550791960267e-09 -3.4297695686808035e-09 -5.4312851732665970e-09  1.3017043055413458e-08 -1.3719470974482856e-08 -6.1731059848409375e-09  1.8187053939174759e-08 -1.7651683959179385e-09 -1.4306667091273901e-08  1.0009778714322982e-08 -9.1887704899662347e-09 -1.4249837403528934e-08  1.1480010273252806e-08 -8.6420689459593172e-09 -8.7201364915470067e-09  4.6234453968774006e-09 5.3794261464150686e-09 -9.1519363881400674e-09  -5.4138063874793435e-10 -2.2418546426235261e-11 -3.4879851406033819e-09  -2.2106726254397555e-09 1.4332904778301512e-08 -1.2616127172579363e-08  1.5857388443998100e-08 1.0365226795910229e-08 -1.2340158761707273e-09  -3.9238564140894259e-09 -6.3260852846383186e-09 -2.1469294451044817e-09  -1.6322626287727566e-09 -3.8010988621753836e-09 4.8552113596754272e-09  5.5051421014914463e-10 1.3271517320458854e-09 1.6899329283033109e-09  6.0408702270202258e-10 1.9666869711395347e-09 8.9992484858324426e-10  7.4850487539977779e-10 2.5817789450349189e-09 -1.5926836225599814e-09  -9.6227688918770937e-10 -1.1045651135307702e-09 -4.3661094393015726e-11  -2.2161990958033004e-09 -5.7372179356285702e-10 2.1696272335685733e-09  -9.4794111889473880e-10 -1.6734416122704971e-09 1.6970780655932679e-09  2.3583695137176065e-10 3.6120073506558597e-09 2.9324417095574218e-09  2.3162659913857832e-09 7.9825369477686702e-09 7.8195811362151240e-09  -3.2456707368460220e-09 1.1172241982468206e-08 -1.2854813345956201e-08  -2.9117222187870491e-08 -9.9881099089029269e-09 3.6028366472362176e-09  7.6445247010257741e-09 2.5842465424947068e-09 -5.8941783626574651e-09  2.0664911802088464e-09 -9.2709282737333537e-10 2.6210297245788909e-09  6.8931041307496662e-10 4.9676917478109076e-10 1.9246786519674983e-09  1.0361667609014792e-09 8.6152515521723712e-10 3.7531887174825634e-10  -5.7482490163079547e-10 -8.0585694692645545e-10 2.5677445195254477e-09  8.9668708212119555e-10 4.2027261008577261e-10 2.8787293565701966e-09  -2.7119542257011874e-09 1.4905408177283437e-09 2.7232531142318830e-09  -9.0282155009299151e-10 6.0493283216640380e-10 3.1827387595066578e-10  -4.7850408346853491e-09 2.9994346615292559e-09 3.0852778713047216e-09  -5.7969787151146035e-09 1.4687090136068612e-09 8.2276928881048209e-09  -2.8690828998213007e-09 -3.3468209090440426e-09 -1.9008196582346863e-09  -1.5876648885224512e-08 -1.1762296542575481e-08 -2.9183554672218979e-09  -3.1701972257825526e-09 1.1511294113678989e-08 -2.4548885338989777e-09  2.3968332152844991e-09 3.5751216290524360e-09 2.0891162093472268e-10  -1.0545400676220233e-09 -1.8033031797498292e-09 -2.2154177392611152e-10  1.2448711729090614e-09 2.4382543260410635e-09 1.1202389655741075e-09  -5.7411716982035838e-10 2.4643126101783914e-09 2.9717961023923870e-10  1.1022633800160697e-09 2.1520769539882403e-09 5.7902563867953016e-10  7.9332484955085995e-10 -1.6854891771329109e-09 1.4279942231969010e-09  -2.6220004362637667e-10 -1.2170453770311761e-10 2.1961629771888387e-09  -3.0447554612400065e-10 -2.9771735332829630e-09 2.0229996511157807e-09  1.3786275552771886e-09 -7.8160334703960269e-10 3.9070370153748814e-09  1.4035470782276339e-10 -2.8166848603696095e-09 -5.7772059056350989e-09  2.2478882539362898e-08 5.4571260070714596e-09 1.2592958148525669e-09  -8.2799925049180599e-09 9.9311569913839384e-10 -3.7040627615487170e-09  -2.3057146406636374e-09 6.8980509518224411e-10 1.1001751224687100e-09  -2.4212443201727319e-09 2.3515890734195172e-10 -4.2588613496616124e-10  -1.5981985182722235e-09 -8.8718295458132404e-10 2.4601962481930329e-09  5.9151473190234833e-09 -5.0133593570177510e-10 -7.1518552796972771e-10  1.0528875853249554e-09 8.0929153902761594e-10 -1.4694333696197784e-09  -8.9563457056278249e-10 -3.0276029413961109e-09 -2.2118610619280955e-10  -3.2636195765978935e-09 -7.7104435629696742e-10 2.5302312734943611e-09  2.0309109331918069e-09 -1.9608793833676670e-09 2.7812748063849767e-09  9.7779856256701428e-09 2.1098700061263485e-09 8.1417499371379537e-10  1.9091232551307920e-09 -1.4209687001860878e-09 -1.0604304494802832e-08  4.0459890235314571e-10 -1.5296998547551230e-10 -9.9169305589902908e-10  6.9304579083049105e-10 -7.6012879942262635e-10 -3.6869817038459847e-09  1.9562834333000653e-10 -1.0386491446504394e-09 -8.2176231772402450e-10  -5.3695920184076020e-11 9.7099796449556111e-12 -1.1938025369225360e-09  1.5706223383159171e-09 5.3841585897382615e-10 -2.7561592269229917e-09  -1.6671161254950533e-09 3.5067202161223074e-09 -2.1520650560010858e-09  8.4436911242246979e-10 -1.0152872882234205e-10 -2.6154988973954919e-09  1.1522527304908839e-10 -6.1708594362085564e-10 -1.8979878522702908e-09  -1.5787848403365129e-10 -6.0610009410878890e-10 -3.2542276038832084e-09  8.0790046822457551e-10 1.0035588144657439e-09 -4.8997245775625637e-10  -1.2531418528581599e-09 -4.2097650857593210e-10 -4.8027378582522177e-09  -8.0352759234606044e-10 -3.7799462168390471e-10 -2.8319334163918900e-09  -3.5335922870074906e-10 -5.3587572986945861e-10 -1.8956089132878661e-09  3.0932729641250868e-09 -1.4908296763290108e-09 -3.2392898596241520e-09  -1.3043445633459273e-09 -7.7907382429984722e-09 -3.0972323106977014e-09  -2.7658321523815006e-09 3.7153999438130790e-10 -2.6892327560480724e-09  1.6007269584836644e-09 4.2723593723200541e-09 -3.8632550292057149e-09  7.0419532911712851e-10 2.7184401979652242e-09 -1.9371549945886974e-09  1.5729066346550331e-09 -8.1598188699156950e-10 -2.0193285264666076e-09  -6.7844027467989183e-10 -3.3479008661425310e-10 -4.3614765832447518e-09  -9.4176176819092011e-10 -2.6436852658144581e-09 -2.0976791175615277e-09  1.2914126909467423e-09 1.7193835218718684e-09 -9.3124040248470684e-10  2.8452809796508985e-10 4.4380841118836689e-09 -3.1561595627020534e-09  1.5047676758988879e-09 -5.7548607518950513e-09 -5.7325568526978646e-09  -1.7284740662701016e-09 7.7915931040301155e-10 -1.3682027394202375e-09  1.1418919994997151e-09 -7.3720211039449679e-10 -1.7193934185410490e-09  -1.6595999891828207e-09 6.1183798251475865e-10 -4.5237631093831335e-09  4.0602814232636730e-09 4.5987410529607180e-10 -5.3645863517605853e-09  -1.4882489108769608e-09 -4.1407837019834991e-10 -4.3044833926037963e-09  -3.0306127125020741e-09 -3.0430564104687396e-09 -4.7013304115341151e-09  -2.4298420105208388e-09 2.5193536883301751e-09 -5.0226539335056764e-09  4.4466403946430026e-10 2.0671569913595906e-09 -2.7001676301472081e-09  5.4448527164761138e-09 -3.1164285965906313e-09 -5.6838835518572834e-09  -1.6320053903908848e-09 1.0575580392054161e-09 -1.8390143377121639e-09  -1.3691848503204637e-09 3.2651941572836380e-09 -3.5607417515397413e-09  4.7610766219736758e-09 -4.1839411490323069e-09 -6.0977266980894402e-09  -4.5970192429074284e-10 2.6866469535656340e-10 -4.5788019879860194e-09  -1.4891805340520027e-09 -1.4321113755012650e-09 -2.0339140816740903e-09  2.2525948428298134e-09 -9.9433895450440580e-10 -7.1143562223501907e-10  2.4995586553766657e-09 -3.5739279394482068e-10 -6.6571326386274839e-10  -1.3150035443119275e-09 1.1517769950855475e-09 -4.9360091643930402e-09  -9.4957013619999003e-10 4.5965812283483238e-10 -1.5233512587225684e-09  9.7313809416482480e-10 -2.2409776065656803e-09 -3.8736761700495211e-09  2.0118963038496080e-10 9.5871847517781189e-11 -2.1564886734109325e-09  -2.4045331118772170e-10 1.7620349463780334e-09 -3.4164003766504379e-09  1.1239530374059437e-10 -5.8791222486520151e-09 -5.5275745341823098e-09  -2.2879208273884000e-09 4.7889774000467532e-09 -3.9191069504851393e-09  3.0655948004690828e-09 2.9775405928620949e-09 -6.2729643573013789e-09  -4.2964650609028685e-09 -2.7880331802295886e-09 -5.2899413505966992e-09  -4.4858375171359794e-09 7.6609892515064487e-09 -9.9270855765028239e-09  4.2329002502661100e-09 -6.6491478879825535e-09 -1.0973270085347510e-08  -8.4350767127029568e-09 3.7186123841763539e-09 -7.7285234761471465e-09  7.8359045597948640e-09 -3.1029558819795731e-09 -5.5367261814152118e-09  3.9016186584245648e-10 -2.1978201562988342e-09 -1.6352938921452478e-09  2.8541329561137963e-10 -6.5544428393567200e-09 -6.5503028367666311e-09  -6.8311647207350120e-10 8.4594256080505898e-09 -6.1074810152886047e-09  -2.5299238661348327e-09 2.0751986933021197e-10 -1.7133591656439118e-09  4.9178637987679403e-09 -4.5380788742647239e-09 -6.2507860089715327e-09  9.5564820662220961e-10 2.5482624136470644e-09 -4.0199692322564770e-09  -1.5752089954398878e-09 -1.6421632228932539e-09 -7.2809897742015385e-10  1.8947800758748080e-09 -2.1717231658537703e-09 -2.0061660789046291e-09  -1.8948044514090545e-09 2.1377223641549552e-09 -3.5782508911636960e-09  9.4664246094154386e-10 5.1181105101014116e-11 -2.9329438556558950e-09  -1.9776514378928131e-09 -1.8026784980140402e-10 -1.6059980555794824e-09  1.7406739546786361e-09 -1.5541010719673989e-09 -1.5936581967478458e-09  -1.4095733707992638e-10 -1.9376044173352793e-09 -6.9105266671544137e-10  -3.5683997644956770e-09 1.0798169693479114e-09 -2.9114106063347230e-09  1.5443692261488636e-09 1.9377563819276056e-09 -2.6938957354891711e-09  -1.1045131683275144e-09 1.1846366059639587e-09 -2.7905240262363931e-09  5.3970572887964145e-10 4.5842087364969163e-10 -8.7020390608477900e-10  1.2019234770939020e-09 3.7982695121197793e-10 -1.1637083723237729e-09  6.5646421742361374e-10 6.0696044928782022e-10 -1.4010352052584987e-09  1.0792315376427132e-10 3.1141400037223417e-10 -1.8856747583514678e-09  1.1546812610390914e-12 -1.6209894430730765e-10 -2.8613523740332428e-09  1.3937231344689830e-10 2.0713408407158612e-09 -4.1977904839922866e-09  1.2230399024556357e-09 1.1575583308647239e-09 -3.1926260814433167e-09  -7.2107426133130452e-10 -1.4571350656646758e-10 -1.5307671301871644e-09  -8.8667915472095583e-11 -2.6205481484765694e-10 -2.3878965486714856e-09  1.4841241735669982e-09 3.0938273669450967e-11 -1.0149405786800548e-09  -8.1846901991039798e-10 -1.4776161944660143e-10 -2.4654726137235568e-09  -8.3346395331802353e-10 -8.7806335729783352e-10 -1.4524475418941529e-09  1.0852861556081882e-10 1.4957538862759089e-09 -1.5182597399816758e-09  1.6534684486462563e-09 4.9675043079401369e-10 -1.3111334709501244e-09  6.5233244487891368e-10 5.5887964428298124e-10 -1.1601059466095173e-10  -1.4853204159079598e-10 -5.6192912412193410e-10 -1.0554849283728274e-09  -6.8673185574652043e-10 -2.7949542756704900e-10 -2.4066968905107927e-09  1.6350901402065112e-09 -3.2675098778598901e-09 -3.1422931225058611e-09  -1.7468845035037595e-09 3.4662425507050137e-09 -1.5001265623350064e-09  -1.6293391113011510e-09 2.5382299238601925e-09 -4.8853900145568384e-09  1.9637269547247072e-09 1.2110488680303680e-09 -7.4463950416292891e-09  -8.0324590454329709e-10 -7.3471615252791589e-10 -5.1742109105165832e-09  3.5717198354642319e-09 -1.9177565648104719e-09 -6.3346711135169670e-09  5.8776872441401578e-10 -1.3917599284131411e-09 -4.8373924107817032e-10  4.4937694586489502e-10 3.9044664424480900e-10 -4.1983882989643669e-09  -1.3435634234901808e-09 4.7282917607889039e-10 -1.0183330430189351e-09  -2.1995919216820522e-10 -9.7125161537113029e-10 -2.9325288402187949e-09  1.2508884746953277e-08 2.0596466828675702e-09 -1.8781795653090632e-08  2.4372187466073042e-08 1.6796843267644618e-08 5.5035885985951011e-09  -2.4457286698197463e-08 -1.5566172915725351e-08 -5.6777481006049815e-11  -9.2865129006504875e-09 4.8663488519445386e-09 -1.2428019075307937e-08  4.6333526504618948e-10 6.0377215432901100e-10 -2.6816959981099042e-09  -1.8577287266156057e-09 2.5899520467673523e-11 -3.7394402174647524e-09  -4.7879695742458324e-10 1.3252156005112584e-09 -2.5537738912304495e-09  3.2880994194535680e-09 6.7078098461305109e-10 -1.8062622245403976e-09  -8.0339182760638936e-10 2.5590628035502535e-09 -2.5968970982274348e-10  -1.5816232285657979e-09 -8.5754372648991934e-10 -1.1736835816879312e-09  1.6503393155311947e-10 3.6369407645079747e-10 -2.8712676305607471e-09  1.0176779633336702e-09 -1.3576063937403967e-10 -2.5509328843775569e-09  -6.9646217372291048e-09 2.3629560792967519e-09 -9.6444506141347927e-09  -2.3921151396828877e-10 -5.1766912100221077e-09 -2.8556988340235896e-09  2.5344162044161101e-09 3.0549150553957117e-09 -4.9232861747871791e-09  1.7591855490535753e-09 -3.5299350198038453e-09 -1.1519906480656742e-09  5.1937784924655871e-09 1.2524049800797535e-10 -4.5778612084812351e-09  -3.6151725690343377e-10 -7.6003896170844911e-09 -5.0189739749235269e-09  1.6171445397563567e-09 2.6139086315811194e-09 -3.2072708947735190e-09  -7.2586566848520487e-09 1.2166121751486978e-09 -4.9444843208805037e-09  -1.3017923697466785e-09 -2.4313037882158651e-09 -3.4203000206986698e-09  -1.1943283034112846e-09 -3.8517338901218792e-10 -1.8238544604463279e-09  -3.8982629962192474e-10 4.3975409719679892e-10 3.4817912801493564e-11  1.3928961963046743e-09 -1.9495600174388151e-10 -8.6355390738066427e-10  8.7476962488627947e-10 1.4348272323941852e-10 -2.2048115363489420e-09  1.7537310007837847e-09 2.4011702089883099e-09 -5.7895767357018621e-09  5.8644948000609346e-10 -7.8214386933716713e-09 -3.1241319581410411e-09  -4.8920556637760607e-09 -1.3647793680942526e-10 -5.4642074921126138e-09  -9.5333544267678344e-10 9.8938246271463268e-09 -7.4786363455678532e-09  5.8234819305672916e-09 -4.7316344269731139e-09 -2.7982580914028319e-09  4.1736064638607505e-09 2.7552672987011752e-09 -3.1005563098008639e-09  -1.7733917142380190e-10 -1.1165769957041890e-09 -3.2752035248833186e-09  4.1341316579965185e-09 -7.6579400032827441e-10 -2.8747658792113063e-09  -1.0520986770778402e-09 2.9830902507939651e-09 -5.5052056130039647e-09  2.1229164913077153e-09 5.0752265777414887e-10 -1.6514279335494662e-09  -7.6635093630934634e-10 -1.9568574637872366e-09 -7.7246791498838467e-10  5.4222640512864169e-10 -1.9485303577705733e-09 -3.6607814299520535e-09  -1.8371290047714441e-09 1.3662826973037461e-09 -2.2198069560687606e-09  -1.5810680786635708e-11 1.9078314523820606e-10 -3.1527677058595739e-09  -1.1194241653995343e-09 -2.3120282769652867e-10 -1.4314859339050811e-09  1.1425787839154902e-09 -5.2298603721337856e-10 -4.1312497429714679e-09  -5.9335796163797552e-10 -6.0638544922117607e-10 -3.4084513770311662e-09  -6.1831671394365074e-11 1.5448073325843499e-09 -3.6584458290382145e-10  -1.4038391412080713e-09 -2.1033452329043956e-09 2.8263638667690433e-11  -1.1444384298305558e-09 -1.3357410367357363e-09 -1.6196029855901270e-09  1.1298070311108788e-09 -1.6742054411593014e-09 -1.9580723759606764e-09  2.3615546291789258e-09 -1.1912957050296780e-09 -5.0307343887302848e-09  -1.1255342081010748e-09 2.2681467437572455e-10 -1.8610329040896968e-09  -5.8559965595217416e-10 -8.0748598109601529e-10 -4.0864078595316951e-09  -1.5788159635778721e-09 1.4480497666145597e-11 -4.7918271693118941e-09  -2.0262700298809068e-11 -7.1539801596165917e-10 -2.0449184187466166e-09  1.5565123442444009e-09 -4.4863943137330527e-10 -4.2799017330041543e-09  -2.6273800801884142e-10 4.0079006837188141e-10 -2.03617253340