<?xml version="1.0"?>
<VTKFile type="UnstructuredGrid"  version="0.1"  >
<UnstructuredGrid>
<Piece  NumberOfPoints="1657" NumberOfCells="7161">
<Points>
<DataArray  type="Float64"  NumberOfComponents="3"  format="ascii">0.5 0 0  -0.5 0 0  0 0.5 0  0 -0.5 0  0.5 0 1  -0.5 0 1  0 0.5 1  0 -0.5 1  -0.07821723251988573 -0.4938441702976052 0  -0.1545084971870769 -0.4755282581477057 0  -0.2269952498692269 -0.4455032620944624 0  -0.2938926261455928 -0.4045084971879415 0  -0.353553390592598 -0.3535533905939495 0  -0.4045084971870234 -0.2938926261468564 0  -0.4455032620939436 -0.226995249870245 0  -0.4755282581474761 -0.1545084971877837 0  -0.4938441702975501 -0.07821723252023399 0  -0.4938441702976052 0.07821723251988573 0  -0.4755282581477057 0.1545084971870769 0  -0.4455032620944624 0.2269952498692269 0  -0.4045084971879415 0.2938926261455928 0  -0.3535533905939495 0.353553390592598 0  -0.2938926261468564 0.4045084971870234 0  -0.226995249870245 0.4455032620939436 0  -0.1545084971877837 0.4755282581474761 0  -0.07821723252023399 0.4938441702975501 0  0.07821723251988573 0.4938441702976052 0  0.1545084971870769 0.4755282581477057 0  0.2269952498692269 0.4455032620944624 0  0.2938926261455928 0.4045084971879415 0  0.353553390592598 0.3535533905939495 0  0.4045084971870234 0.2938926261468564 0  0.4455032620939436 0.226995249870245 0  0.4755282581474761 0.1545084971877837 0  0.4938441702975501 0.07821723252023399 0  0.4938441702976052 -0.07821723251988573 0  0.4755282581477057 -0.1545084971870769 0  0.4455032620944624 -0.2269952498692269 0  0.4045084971879415 -0.2938926261455928 0  0.3535533905939495 -0.353553390592598 0  0.2938926261468564 -0.4045084971870234 0  0.226995249870245 -0.4455032620939436 0  0.1545084971877837 -0.4755282581474761 0  0.07821723252023399 -0.4938441702975501 0  -0.07821723251988573 -0.4938441702976052 1  -0.1545084971870769 -0.4755282581477057 1  -0.2269952498692269 -0.4455032620944624 1  -0.2938926261455928 -0.4045084971879415 1  -0.353553390592598 -0.3535533905939495 1  -0.4045084971870234 -0.2938926261468564 1  -0.4455032620939436 -0.226995249870245 1  -0.4755282581474761 -0.1545084971877837 1  -0.4938441702975501 -0.07821723252023399 1  -0.4938441702976052 0.07821723251988573 1  -0.4755282581477057 0.1545084971870769 1  -0.4455032620944624 0.2269952498692269 1  -0.4045084971879415 0.2938926261455928 1  -0.3535533905939495 0.353553390592598 1  -0.2938926261468564 0.4045084971870234 1  -0.226995249870245 0.4455032620939436 1  -0.1545084971877837 0.4755282581474761 1  -0.07821723252023399 0.4938441702975501 1  0.07821723251988573 0.4938441702976052 1  0.1545084971870769 0.4755282581477057 1  0.2269952498692269 0.4455032620944624 1  0.2938926261455928 0.4045084971879415 1  0.353553390592598 0.3535533905939495 1  0.4045084971870234 0.2938926261468564 1  0.4455032620939436 0.226995249870245 1  0.4755282581474761 0.1545084971877837 1  0.4938441702975501 0.07821723252023399 1  0.4938441702976052 -0.07821723251988573 1  0.4755282581477057 -0.1545084971870769 1  0.4455032620944624 -0.2269952498692269 1  0.4045084971879415 -0.2938926261455928 1  0.3535533905939495 -0.353553390592598 1  0.2938926261468564 -0.4045084971870234 1  0.226995249870245 -0.4455032620939436 1  0.1545084971877837 -0.4755282581474761 1  0.07821723252023399 -0.4938441702975501 1  0 -0.5 0.9230769230766027  0 -0.5 0.8461538461535256  0 -0.5 0.7692307692309824  0 -0.5 0.6923076923084392  0 -0.5 0.6153846153858957  0 -0.5 0.5384615384633524  0 -0.5 0.4615384615403821  0 -0.5 0.3846153846169851  0 -0.5 0.307692307693588  0 -0.5 0.230769230770191  0 -0.5 0.1538461538467939  0 -0.5 0.07692307692339706  0.5 0 0.9230769230766027  0.5 0 0.8461538461535256  0.5 0 0.7692307692309824  0.5 0 0.6923076923084392  0.5 0 0.6153846153858957  0.5 0 0.5384615384633524  0.5 0 0.4615384615403821  0.5 0 0.3846153846169851  0.5 0 0.307692307693588  0.5 0 0.230769230770191  0.5 0 0.1538461538467939  0.5 0 0.07692307692339706  0 0.5 0.9230769230766027  0 0.5 0.8461538461535256  0 0.5 0.7692307692309824  0 0.5 0.6923076923084392  0 0.5 0.6153846153858957  0 0.5 0.5384615384633524  0 0.5 0.4615384615403821  0 0.5 0.3846153846169851  0 0.5 0.307692307693588  0 0.5 0.230769230770191  0 0.5 0.1538461538467939  0 0.5 0.07692307692339706  -0.5 0 0.9230769230766027  -0.5 0 0.8461538461535256  -0.5 0 0.7692307692309824  -0.5 0 0.6923076923084392  -0.5 0 0.6153846153858957  -0.5 0 0.5384615384633524  -0.5 0 0.4615384615403821  -0.5 0 0.3846153846169851  -0.5 0 0.307692307693588  -0.5 0 0.230769230770191  -0.5 0 0.1538461538467939  -0.5 0 0.07692307692339706  -0.007594136642501654 -0.004045741957735315 1  0.2671352096201229 -0.02102399694998625 1  0.01764383341409913 0.2536132760584658 1  -0.02666396035831023 -0.2531221455965387 1  -0.2531221455965389 0.02666396035831023 1  -0.2215292578081779 -0.1892038603591107 1  0.1892038603591108 -0.2215292578081779 1  -0.1892038603591107 0.2215292578081779 1  0.2215292578081779 0.1892038603591109 1  0.1385185436720213 -0.09057822738852793 1  0.1444278228516107 0.06230098297709098 1  -0.1036020399044679 -0.1332668134328397 1  -0.1236898625509597 0.09154779714398348 1  0.3276138866914048 -0.1493452764976681 1  -0.1493452764976681 -0.3276138866914048 1  -0.3276138866914049 0.1493452764976682 1  0.1479353928765055 0.322183943053354 1  -0.09663024938828488 0.3427470693423371 1  0.350382753551459 0.09518682362295226 1  -0.3499441325621996 -0.09531085618119063 1  0.09531085618119059 -0.3499441325621996 1  0.3758029057029099 -0.02957633010838067 1  0.02957633010838064 0.3758029057029099 1  -0.02957633010838066 -0.37580290570291 1  -0.37580290570291 0.02957633010838064 1  0.008167023249524813 0.1287506671888682 1  -0.1411725171320288 -0.01707001611904115 1  0.01869295614714423 -0.1422154233579206 1  0.1114116068465904 0.1842585037493884 1  -0.2598550650020522 -0.294657539154362 1  -0.2946575391543621 0.2598550650020524 1  0.2601808590994745 0.2960858335428702 1  0.2946575391543622 -0.2598550650020522 1  0.3322366357565687 0.2103437406355584 1  -0.2107023737883974 0.3346675180840228 1  0.2103437406355586 -0.3322366357565688 1  -0.3322366357565688 -0.2103437406355586 1  -0.0812534232444079 0.2029318716322168 1  0.0963670891699373 -0.2227021471835499 1  -0.22270214718355 -0.09636708916993723 1  0.2190419849291031 -0.119559722020513 1  -0.1087485665851406 -0.2146437707845258 1  -0.203317076811764 0.1224557072025287 1  0.2273152369504595 0.09523047733096632 1  0.1600008575320791 -0.01229387630752224 1  0.4050885445567445 -0.09912204850336188 1  -0.4050885445567446 0.09912204850336188 1  0.09892063655748151 0.4043128383227373 1  -0.0991220485033619 -0.4050885445567445 1  -0.03455328827880966 0.415059611947992 1  0.03436480353493904 -0.4160877638365437 1  -0.4160877638365438 -0.03436480353493905 1  0.4161504239778664 0.03434708459804784 1  0.08365969031159125 0.002330153091588407 1  -0.2229390493464861 -0.3596307773124036 1  0.2233161458114676 0.3613387240591179 1  -0.3596307773124037 0.2229390493464862 1  0.3596307773124037 -0.2229390493464862 1  0.390515935037582 0.1636195434767474 1  -0.3904839655777235 -0.1636285837506716 1  0.1636285837506716 -0.3904839655777235 1  -0.1638876663325903 0.3923623890350764 1  0.04384282532259486 -0.07015857662322166 1  -0.08011765448211583 -0.04742160867833382 1  0.3226797123127975 -0.06724769324647022 1  -0.06791911746174686 -0.321011490405228 1  -0.3210114904052281 0.06791911746174685 1  0.06791597125071956 0.3133322485632025 1  0.01300029933573454 -0.3336582341509043 1  -0.3336582341509045 -0.01300029933573453 1  0.3312625026944596 0.01634298279090017 1  -0.01890231217342257 0.3207204227358019 1  0.1593044755135351 0.2337613396768917 1  -0.1672342929047866 -0.132773056500856 1  0.1327730565008564 -0.1672342929047865 1  -0.04057312736015202 0.07214036689862746 1  -0.1216583376241947 0.2551263578533178 1  -0.1373396390671733 0.1663016697769111 1  -0.03904193612438347 -0.1752447455726509 1  -0.1712751339250678 0.03771861162601834 1  0.1644461726501372 0.141775045830479 1  0.1511790319801663 -0.2932104380950028 1  0.2916869062741757 0.1510279462551886 1  -0.2932104380950028 -0.1511790319801662 1  -0.1893770942190298 -0.2599721157064441 1  -0.2635796411850183 0.1942911785362421 1  0.2605218924745163 -0.1907284886484514 1  0.05220398401757594 0.06955290408511863 1  -0.2805626972065101 0.328998778205796 1  0.3302393900494474 0.2819473926997965 1  -0.3318449512303389 -0.2832306080595193 1  0.2832306080595193 -0.3318449512303389 1  0.04832342905271358 0.1877808363511603 1  -0.065696898690541 0.1410851320361489 1  -0.02462254826085986 -0.09310549957314221 1  0.09208911815902721 0.2491550245754104 1  0.4381772089070252 -0.03451370530671609 1  0.03443218218138764 0.4378039052542489 1  -0.03451016151933785 -0.4381646768787607 1  -0.4381646768787607 0.03451016151933783 1  -0.05325027090288098 0.2628866993452785 1  -0.09689651082758409 0.02496399895247979 1  -0.2319704355840505 0.2759202109613136 1  0.2310272246689467 -0.2710730170749428 1  0.2726687263497516 0.2357350096492068 1  -0.2707894989087602 -0.2307430766710918 1  0.0336413547679618 -0.2027252641275629 1  -0.2018898444819838 -0.03359141884633879 1  -0.4063469422152409 0.1729714595109716 1  -0.1729714595109716 -0.4063469422152409 1  0.1703351844603517 0.4017734051354755 1  0.406346942215241 -0.1729714595109716 1  0.1062645597092786 -0.4273938075414044 1  -0.4273938075414044 -0.1062645597092787 1  0.4274699861971816 0.1062430180279853 1  -0.1055593867415405 0.4239082997540863 1  0.2114787942763156 -0.05534444370504381 1  0.2111840717711281 0.02625652447817698 1  -0.01987966435303436 0.1991166824559048 1  0.09743269749791104 0.1212317405257936 1  0.07902357234820491 -0.1415259639585728 1  -0.1527864160148222 -0.07674833379122445 1  -0.2932561548882097 -0.3421707315115853 1  -0.34197627736778 0.2930487078747591 1  0.2933466339041634 0.3427676239539843 1  0.3421707315115853 -0.2932561548882097 1  0.3839561780338137 0.2360638943783668 1  -0.3840708713079414 -0.23615
[...]
<PointData  Vectors="f_15"> 
<DataArray  type="Float64"  Name="f_15"  NumberOfComponents="3" format="ascii">-8.9463664064400896e-09 5.2422037784004170e-09 -1.8057857441861003e-08  3.5864951965351494e-09 -6.5654442074258943e-11 -2.0617914140002452e-08  -6.0590232716773927e-09 6.7938415589543743e-09 -1.9606200767589268e-08  9.8550202858307301e-10 1.5798942491089132e-09 -3.8057922225232424e-08  -5.8054015941312002e-08 -9.9365922578653194e-09 -2.9766261258904094e-08  5.2934886040594445e-08 1.0850583408305251e-08 -2.7335942418188301e-08  -2.5060476925756564e-10 -4.9953512409565988e-08 -4.2144085185930396e-08  -4.9571679657616370e-09 5.0953639134941138e-08 -4.7851229215684499e-08  -3.8309073514438131e-09 -1.1842355185065392e-08 -6.7345721159555471e-08  -1.2992163734758544e-09 9.7536547201423773e-09 -1.3972562839437864e-08  -1.5965052014391024e-09 1.0656539529483984e-09 -1.7899745743238605e-08  -7.0499919240482780e-09 -9.9060198931547620e-09 -2.9010894580689767e-08  4.8162322349646599e-10 -4.1876764869044689e-09 -2.4224208436447499e-08  8.9072361483683622e-10 -2.3986779707219273e-09 -2.8026744435487631e-08  -4.4518317831943618e-09 1.1069611544876304e-09 -3.0194307564662544e-08  4.2208651480511445e-09 3.0849064925441008e-09 -2.6550925201967548e-08  5.1560914229863154e-09 -1.1459725996057601e-09 -2.6925831384418801e-08  -6.3772385330023571e-09 8.8224978697144390e-09 -2.4139842397173235e-08  -5.1806426785435285e-09 1.5504947005544143e-08 -2.7044053002252602e-08  -7.7028746503583397e-09 1.0025996184754615e-08 -1.4340702750542205e-08  -3.5587572393546837e-08 1.2979018288111915e-08 -4.3027070622621085e-08  -1.3889213772957079e-09 1.9493182379427833e-09 -2.2024054623722594e-08  6.8051701861025394e-09 -1.6245260539042474e-08 -2.3947541553052001e-08  1.1867320657992183e-09 4.6143008254235061e-09 -3.8248518568978930e-08  9.1532240166238765e-09 -1.0900453744255189e-08 -1.8748330564965096e-08  -5.8540666392385271e-09 1.4231653096487138e-08 -4.0021268974423881e-08  -2.6793453908442323e-09 1.2801308531673337e-08 -2.7423736221238368e-08  1.6946555230232201e-08 3.2869500109051437e-08 -6.7734868048278616e-08  -9.3735789529444940e-09 -1.6851556434284835e-08 -1.1741865239757300e-08  5.6702158144576083e-10 1.5679898186403958e-09 -2.4958958072982266e-08  -7.1332246379293253e-09 -2.6368323606891685e-09 -2.4658620555073856e-08  -9.7420281053480812e-09 -6.1178480595383604e-09 -2.9593577452331563e-08  -9.1917399858386484e-09 -4.3643091262186148e-09 -2.6517279487121019e-08  -1.4186849130070877e-08 -1.0194786397440085e-08 -1.6669897634057594e-08  5.1357282679297691e-09 1.4750243760580017e-09 -3.0712058043695415e-08  -1.5301247281899194e-09 -4.7797018279152956e-09 -1.5150948537973277e-08  2.2267908477910529e-08 2.8758290374655917e-09 -4.4898272534354973e-08  -7.1622581715289639e-09 8.5620829488926070e-09 -7.7368244097147833e-09  8.5539071577904675e-09 -5.5285500205740637e-09 -3.4479887452519585e-08  5.5223956373891557e-11 -7.2612311137344332e-10 -2.1443677970722571e-08  -3.0240961557688295e-09 -3.5839269153325891e-09 -2.2412671120544539e-08  -2.9260631679558684e-09 -2.6471905134286870e-09 -3.0745640122523872e-08  4.8441936233836117e-09 -2.7522290220814258e-11 -3.3977883409158207e-08  -2.1993794824398599e-09 1.4226718096706615e-08 -1.8329543545563597e-08  -6.6620905704782022e-09 -1.1074158355148619e-08 -1.6765972892926804e-08  2.6298927268815534e-09 -3.2892635534132737e-09 -2.7816506821912407e-08  -3.4949251764111616e-09 -1.6161335304495264e-09 -2.9974221955676340e-08  -4.9439893452082976e-09 2.1952312448888683e-10 -1.5328675548249344e-08  -2.9173761659475360e-10 -6.1156178225421500e-10 -2.5691868303847778e-08  -2.1048685890253961e-10 -1.1037886149963917e-08 -2.0384758798739234e-08  1.6246288302308479e-08 2.9907253267030045e-11 -2.1533949799071592e-08  2.4621712959833941e-08 1.2784279161499964e-08 -3.3983333288211243e-08  1.8954396866659484e-08 8.0646546321280942e-09 -3.6102986556959041e-08  -1.9803636119898815e-09 7.0996427106800194e-09 -1.7748206088309254e-08  -5.0673487908453501e-09 3.5048943471362437e-09 -2.2597787971298630e-08  -5.2800068516753944e-09 3.1741155544473258e-09 -2.2428917997454281e-08  1.5642267613378706e-10 -2.5898080294093098e-09 -2.4022124401763663e-08  4.8215058053625661e-09 -2.0038963573578292e-09 -2.8788800516322459e-08  -5.2056747809018011e-09 7.8001448321711145e-10 -1.8208387609187612e-08  8.5820899447024649e-10 5.4682531684025226e-10 -1.8509676904549351e-08  6.4169566664301073e-09 -1.1594799631711009e-08 -3.1220445146679528e-08  5.7888033517839969e-09 -1.9033438693139002e-08 -3.6964691934874312e-08  8.1021222314703805e-09 1.3039183377295193e-09 -2.0530750680914093e-08  3.8150517144190506e-09 1.0278042333368581e-08 -1.8931390763640272e-08  -1.8909255712068124e-09 -2.6955230438673412e-09 -3.1562072816876184e-08  3.4736605773554853e-09 -2.7917694622635531e-09 -1.7738205845544316e-08  -2.1224014807190211e-08 -1.1515668390894800e-08 -3.4189655081808754e-08  -3.9923496831473341e-09 2.4166030936680845e-09 -9.5425627872275615e-09  -1.2434113494989400e-08 -7.2929254597677256e-09 -1.5654080406364812e-08  -2.7298072371142389e-08 -1.6909367985887449e-08 -3.6242060433717835e-08  -1.7446289290542719e-08 -7.5418098818925577e-09 -3.7289730700724852e-08  -6.0357959297635819e-09 -3.2295668492907090e-09 -2.3665285060969513e-08  8.6783323313450879e-09 -3.0590733862511057e-09 -1.6913879145162508e-08  9.8497836016773331e-09 -3.4729007013683041e-09 -1.8878639748320443e-08  -8.2316628014472143e-09 4.4795217980789491e-09 -2.8941349744126689e-08  -4.6399979916338042e-09 3.9654202109464436e-09 -2.6070172288041286e-08  6.5382089386374418e-09 1.9738530820152860e-09 -1.9067413550419450e-08  -1.6271579976759773e-09 1.0917944303041481e-08 -1.7507760013380619e-08  -1.4932526354971282e-08 2.4928258494819061e-08 -3.6352528354004493e-08  -1.0883628282104391e-08 1.4460669190729294e-08 -3.3117508662499270e-08  2.6929566419377838e-08 8.8932949225638000e-09 -1.1274824347580536e-08  -4.8408256754320377e-09 -3.4645173933682059e-09 -5.7466209756057208e-09  -1.8448990510165547e-09 -2.0038046704654607e-09 6.4235734507979206e-09  -3.3440832775774946e-10 -1.4500182580488832e-09 8.0289874501800247e-09  1.0882292337235390e-09 -4.7085646257761423e-10 7.7499215213125166e-09  3.0178156932203215e-09 2.1025757307203546e-09 5.8123910772320199e-09  -1.6135735616269577e-09 -1.9363256788994013e-09 4.3970234179736144e-09  1.1985449098411718e-09 2.4967413278596376e-09 5.7830826986566780e-09  -8.0759594077101918e-10 8.1130782692121982e-10 5.6052668237939870e-09  -2.6035218522914645e-10 3.9863020570452019e-09 6.1185819870744609e-09  2.5229963616894535e-09 3.1270843892667514e-09 7.3137019160838606e-09  -4.0434352741255150e-09 1.6402512121149668e-08 -1.7805245029100096e-08  -3.0545570974366593e-08 6.3628519340407458e-09 -4.5711458871779108e-09  2.8872268336003068e-09 3.7016115185047438e-09 -7.9916977876160004e-09  1.7675665170572509e-09 6.4616758480430618e-10 5.3440949955265802e-09  4.9476671215487585e-09 -1.1668485576672505e-09 5.8728581723997285e-09  3.3431119537355719e-09 -2.6466176378248444e-10 6.4329602469882083e-09  1.0476133080962198e-09 4.7127516137888317e-11 7.3182639340851976e-09  4.1509667895307344e-09 1.7475851890754760e-09 8.8688669938392304e-09  -4.6786527859046209e-09 5.8300823948970717e-10 8.2615206334891458e-09  -4.7659112750253088e-10 1.6437990679865628e-09 4.8716404761264956e-09  -7.6867236676370160e-09 2.4620327043005187e-09 6.5548160654388512e-09  -5.2518375348844902e-09 3.5182509809676443e-09 3.9184635880266157e-09  -8.6344367398279677e-10 -1.1780447621341889e-08 -8.5801746437074253e-09  -2.9040266298153751e-08 -1.5718746407885779e-08 -1.5054933856231199e-08  1.3573148796689571e-09 1.1412518414936633e-08 -5.3268009434914532e-09  2.6339500007877758e-09 -1.9886643501636273e-09 4.9890673133116331e-09  4.8704350816478000e-10 3.9175931517670051e-09 4.1013967979425112e-09  2.1321141368624607e-09 2.1080738203847298e-09 6.7253039203201202e-09  4.6568252453242361e-10 4.6087374387892385e-09 8.9853599043925537e-09  2.3693091834274221e-09 3.2604961733645887e-09 6.1174484797201082e-09  -1.1374560706442984e-09 -4.1590061831202361e-09 5.2441757468368922e-09  -4.9901237043939113e-10 -1.9947804975717813e-09 6.0970673434030277e-09  9.7546279198033540e-10 -2.5305899741994282e-09 4.4839107649734352e-09  7.3483648445080478e-10 -2.7322419284685472e-09 1.4524292123559836e-09  4.9167297181334486e-09 1.5405831803097342e-09 -9.5837755696619181e-09  2.0446106078203601e-08 -1.1731447392085550e-08 -2.7899123899653391e-09  -3.6624926316012700e-09 -4.2048088699572134e-10 -8.1236704134618959e-09  -7.0474418557448773e-09 1.1718976529794028e-09 3.7323177884262472e-09  -4.5229810101566413e-09 4.1250379682196081e-10 6.6961598838341187e-09  -4.6133545438088139e-09 1.1690912583191017e-10 7.6912468582304530e-09  3.6259532926714553e-09 -5.9501125590939805e-09 4.8938847223793718e-09  -1.3687912684054322e-10 2.7143924704295766e-09 4.2500426638148315e-09  5.3906790064962099e-11 -6.7970126067796570e-09 1.8403886038813052e-09  -4.0596385273851718e-09 -1.8676967302745121e-09 9.8245352643027421e-09  3.0701469197394424e-09 -8.7476896897546436e-10 8.0586635624964945e-09  6.0755427412587126e-09 2.2487122202131654e-09 -2.4810965108842904e-09  -1.4335233123040612e-09 6.5451232701562446e-10 -1.7733303499080046e-08  -7.9690683314754138e-11 -2.4679187760016730e-09 -1.2967822213094001e-08  4.1788032394076799e-10 -1.2091362202442761e-09 -2.3663374150537794e-08  -3.8104443045971482e-10 -3.1551100238970927e-10 -1.5174501839220708e-08  4.5899530880179482e-10 1.6871125346917001e-09 -1.4826110118541032e-08  3.2886042265857500e-09 2.0059587748227443e-09 -1.9518583596267484e-08  1.7417913773662481e-10 6.2204063399557908e-09 -1.9005990747540121e-08  1.1734788258088406e-09 3.9581944825904709e-10 -1.6537524565628001e-08  1.7432958276090679e-09 -1.6379971869212555e-09 -1.6642485146044733e-08  -3.4134556835772043e-09 -2.2753189039562829e-09 -2.1153895779938235e-08  2.1783008691605272e-09 9.9369280340390671e-10 -1.8244193285941620e-08  -1.1502861637510120e-09 -4.1807465053507416e-09 -2.3026829345259980e-08  -2.8922721180468817e-09 -7.9697864776100753e-10 -2.2161616775415071e-08  2.4762507072223582e-11 -1.1667093034188863e-09 -1.9007121704559172e-08  1.5579807883858177e-09 1.3744538696087727e-09 -1.7052894357063496e-08  1.7273196511362365e-09 -5.7572462457772246e-09 -1.5546842267091444e-08  5.2809281760572286e-10 -1.0006932155751589e-09 -1.7609201766780417e-08  -2.0422686992568748e-09 3.7008939751124689e-09 -1.9320787063264672e-08  9.5463931939167958e-10 2.5966120707063143e-09 -1.6525641033578100e-08  7.0846762692661333e-11 -1.6200975493544534e-09 -1.4660575014367856e-08  -4.5119956701262145e-10 -1.4293825031031780e-10 -2.1145626035859619e-08  -1.0022808595287222e-09 -3.6683248360161022e-09 -1.6605105759216395e-08  -5.7306913978719830e-09 1.0245858805711454e-09 -1.7167628707568343e-08  3.3516557749637911e-10 1.7077617266625551e-09 -1.5721185925343792e-08  1.6006097009121720e-09 -3.7464171294021166e-09 -2.3498242310157840e-08  2.1999579762082587e-09 5.1951162725141533e-09 -1.4723847059178535e-08  -2.1095466301356958e-10 -3.3788604752101264e-09 -1.9090543521391966e-08  -3.0565221271748973e-09 -1.2814718170935627e-09 -2.7651835588718890e-08  5.2713722409922844e-09 -2.0248653731467724e-10 -2.4848704677474366e-08  -5.6993489980689275e-10 1.3022819771285441e-09 -2.1180815295041011e-08  -1.8089281642072759e-09 -2.1235694519724971e-09 -1.9847288637036309e-08  -6.3306178404692154e-10 1.5460823819457066e-09 -2.3648994391880478e-08  -4.1297191721020056e-09 3.5240458990773090e-09 -1.3358242401396156e-08  6.5795231005452195e-11 2.4018446380155801e-09 -1.8600269096739852e-08  -4.5402700523062413e-09 -3.4032710218134255e-09 -1.4624391727387412e-08  -1.8417955937941807e-10 -1.6937304498360787e-09 -1.8500880531574554e-08  1.3674978531967778e-09 3.6136055952468040e-09 -1.8642745458016382e-08  2.4067895688045611e-09 6.8146389415780422e-10 -1.9016023757259317e-08  -4.4945131103251713e-09 -3.3803384209891686e-09 -1.8881923787888473e-08  1.1497188471856403e-09 3.5725037221000675e-10 -1.2220998676187550e-08  3.7375724507864423e-09 8.8528853080395309e-10 -1.3536881279773921e-08  -1.0875240975742997e-09 3.0728824323780166e-09 -2.4408831499989420e-08  -8.9397967076492837e-10 4.0390187028327651e-10 -1.8877016995726616e-08  1.2717625151296276e-09 -4.7905409076107529e-09 -2.2481253124816107e-08  1.1752923416508942e-09 -1.5998366907422117e-09 -1.8403439659360394e-08  8.1064041289317718e-10 3.4919325884750765e-09 -1.9814399868957779e-08  -2.3333859303774630e-09 -3.8852062179678453e-09 -1.8369686178265685e-08  6.5859735954214303e-10 1.6756763597064192e-09 -2.0617626273140461e-08  2.6491246930588796e-09 -6.8488517670476001e-10 -1.9925284583085063e-08  -2.7278476583931601e-09 -1.1633238210783670e-09 -2.0137030644088045e-08  -6.1728569627787543e-09 7.9642564825139098e-09 -2.3197161403773516e-08  4.7989708947580153e-09 -8.2451022573380192e-09 -2.7216260826207531e-08  -9.5817929044772585e-09 -1.5101353406608679e-09 -2.8749636525940385e-08  7.6116341609660084e-09 8.6352900363685870e-10 -2.1204985113387178e-08  4.3462891224628281e-10 -3.6196011718715373e-09 -1.9609258126414559e-08  5.2370625290762456e-09 -6.0090906680203093e-09 -2.3235423754508840e-08  -4.6166010972763270e-09 6.7547301201024112e-09 -2.0924201255272186e-08  5.0551544858796705e-10 9.3437484574978538e-10 -1.6191537779276577e-08  5.8790306204029670e-10 -6.6952145919368871e-10 -2.0953689050407004e-08  2.4494485110540318e-09 -1.3594535862593267e-09 -1.8664170874836707e-08  -5.1135420909797319e-09 -6.9648410096798135e-10 -1.7879418796918486e-08  2.0252899316805436e-09 -4.8226218199365588e-09 -1.7535598439706344e-08  -2.6053874770638453e-09 3.7330615325480764e-09 -2.2412078842292217e-08  -1.0114835903790300e-10 3.3796668401934297e-09 -1.5449549914390868e-08  -1.4523382880734850e-09 7.0916783526725597e-10 -1.6448045164542824e-08  8.6136075214067130e-10 -1.0282160754126450e-09 -1.2850063390988525e-08  -5.4787881947151936e-10 -2.0817506292041893e-09 -1.3510807646649829e-08  -1.2677785526475250e-09 3.3407801786702211e-10 -1.8659807096934041e-08  1.2511177248121450e-09 2.8091506627316349e-09 -1.7831493116857801e-08  -3.1737874597098150e-09 2.3260715493477425e-09 -2.0429539512332782e-08  2.2653160401476484e-09 -5.8236101330080374e-10 -1.3211208086306942e-08  1.8468433763972907e-10 1.5105388927774139e-09 -1.2394867169075231e-08  -4.5534320022443684e-10 -8.1339483270503221e-10 -1.6266539444238365e-08  -1.2807341582161411e-09 -1.3826217329693668e-09 -1.4866063455295754e-08  8.1811685133513009e-10 1.7196082316753114e-09 -1.6926360838346890e-08  8.3557406314401418e-10 1.3186056321869419e-09 -2.2767453009085537e-08  3.1800127417354186e-10 7.4132921313958062e-10 -1.8933032892860684e-08  -1.6838005217349747e-09 -2.1641944538046097e-09 -1.4441199402855241e-08  -9.2424151263108990e-11 2.3209480246236880e-10 -1.9358214267332640e-08  1.5920189168348498e-09 4.2188583822840609e-10 -1.8223538293492909e-08  -8.9752700581385514e-10 8.2701061465432595e-10 -2.3347802799395852e-08  -1.7869209214016199e-09 -1.7634781098728159e-09 -1.3299070456379883e-08  -1.2909637160248346e-09 1.4776027770273864e-09 -1.0811527345083543e-08  -4.6621817990891917e-10 -4.6119017744421328e-09 -1.2890149596660455e-08  -3.9131237225855052e-10 1.8880676376856172e-09 -1.2578320934766249e-08  9.0552447209936708e-10 6.5111770952362240e-10 -1.3209749465159002e-08  -1.0288683010358928e-11 -3.5488797468917507e-10 -1.8809581641198931e-08  -1.4153244973766265e-09 -3.4618439486348366e-09 -1.8887113862984105e-08  -5.0996758478743487e-09 4.1505440261835350e-09 -1.8370212136155252e-08  -1.3368033088270683e-09 4.4631696800993078e-09 -2.2296820335863876e-08  1.8386990729025125e-09 6.5689248972595721e-09 -2.3970279481032511e-08  4.9064162738004396e-10 -2.4327040031734769e-09 -1.7824184484043953e-08  4.3177795103986358e-09 -2.1806352708642208e-09 -2.7036206665600268e-08  2.5263499072993544e-09 -1.5304807568288910e-09 -1.7087058950493977e-08  -1.1334492741640308e-09 -1.1091449284117104e-09 -2.4148267651333844e-08  -2.2765760811800397e-09 2.4455692202625663e-09 -1.6786298931288851e-08  1.8278907218111126e-11 -2.6783758217483823e-09 -1.7543625479148626e-08  1.6503216656773770e-09 1.6883603274363028e-09 -3.2857765003983513e-08  2.9148445875274379e-08 9.7330950380334443e-09 -9.3459288077243650e-09  -2.7037723788154997e-08 -1.1279303671333497e-08 -1.3760690540821852e-08  -2.1905930378905706e-09 -5.7743347799854173e-10 -2.3053224199937588e-08  4.2624547010605726e-10 1.9451072162124671e-09 -2.0268414740307639e-08  -3.3673155632934506e-09 6.1364498479964252e-10 -2.5174990865466795e-08  1.6912598157759785e-10 -1.1056725071625637e-09 -1.6947191694450733e-08  2.4622425022838030e-09 3.8710167385783984e-09 -1.3111222306808372e-08  -5.3068966752397779e-09 2.4291403723079608e-09 -1.3976351084428419e-08  -3.0139935521449680e-09 -1.1527434540120331e-09 -1.5591316138403488e-08  -2.8021900815625452e-09 5.7562903564532252e-10 -1.9805529425869711e-08  3.1741343160004377e-09 5.2721121735301908e-10 -1.9548369860116899e-08  -2.6988374918255367e-09 2.1719946521610485e-09 -2.6211911985034167e-08  3.4321668778537880e-09 -4.9733222251373193e-10 -1.4887490933940770e-08  1.2168858559714208e-09 1.1637621611159392e-11 -2.0398083751656364e-08  -6.2614232867935322e-10 6.9246648737184677e-10 -1.4133729533991613e-08  2.6469104334421458e-09 -1.0562343935325887e-10 -1.5843457602714881e-08  2.7650327139741733e-09 -1.3805996635562839e-08 -1.4040699957327187e-08  2.9978405921035786e-09 -7.3837746888104201e-11 -1.2495034990610425e-08  -5.5125201759633477e-10 2.4578581969737538e-09 -1.4715347442032628e-08  -1.1386764025086547e-09 -2.6863733523779225e-09 -1.9670825644627534e-08  -6.5620378072785303e-10 -4.7818417606908708e-10 -1.5212539515479741e-08  8.4474563639465350e-10 4.1758563771021271e-10 -1.0407615269264482e-08  4.5263951725272719e-09 1.3518145820788989e-09 -1.4584958972349807e-08  -4.9477839100375274e-10 3.0099244532796066e-09 -2.2092329492091734e-08  4.0744190457550871e-09 3.9192655299112352e-09 -2.6849384107997519e-08  -1.2527113913723322e-09 -5.0433449365387952e-09 -2.0713372407811746e-08  -8.8301912893050709e-09 -3.0198100534887672e-09 -1.8780961391553992e-08  -6.2693841691612408e-09 1.2282453280142974e-08 -2.1125216034677537e-08  1.3242176958609285e-09 1.6367310309438644e-09 -1.8678361705880941e-08  -3.7332805959970045e-09 -5.1730702603325375e-09 -1.6324891697033729e-08  8.6609961924170968e-10 3.8583179751736349e-09 -2.3023136284485704e-08  -5.2693313510939683e-09 2.8612604333104812e-09 -2.0399341277648069e-08  4.3033410984536325e-10 -1.3473095827886798e-09 -2.0522532980557260e-08  3.0042437426193767e-09 -1.4411706380255493e-09 -1.3337223495518358e-08  -1.3689148684991089e-09 -1.2604410216178514e-09 -1.7129353803990320e-08  2.6659533233515499e-09 -6.8622334875267809e-10 -2.1510249735228299e-08  -2.7271325533990279e-10 -2.1560732876648848e-09 -1.5289272840259592e-08  2.7606833813343629e-09 -5.4520221826203987e-10 -1.9620894015688966e-08  -5.4280414504804702e-09 7.1226135667457030e-10 -1.5046870786956150e-08  2.7345465769866049e-09 5.5620395859340084e-10 -2.2388142868331297e-08  -3.4020327605548425e-09 -2.2679309732044609e-09 -2.1539099201633679e-08  2.2151433309044947e-09 1.9174250935224373e-09 -1.3218521647646044e-08  -1.5212460354413781e-09 7.8783258334183250e-10 -1.1493918641119151e-08  -1.3247552501144744e-09 -4.0073124904942351e-09 -1.8093741852877431e-08  2.6415326136202266e-09 -4.1128337264667679e-09 -1.8952288163533877e-08  1.6488092720064666e-09 -1.5793282824201958e-09 -2.1114298739506193e-08  -1.9795973516946243e-09 3.5883611650686654e-09 -1.3435165022013077e-08  -9.8281633322110036e-10 -2.1069363519432316e-09 -1.7694466940544629e-08  -6.7836241394361346e-10 5.6061794499471661e-10 -2.0340781535039190e-08  -9.2211032491246685e-10 -1.5413167006456041e-09 -1.7601689171904259e-08  -6.5525983461318652e-10 2.0725926133111523e-09 -2.0060438087997892e-08  -1.2830618151739644e-09 2.3303550988920072e-09 -1.17